# Force coefficients
# dragDir     : (1.000000e+00 0.000000e+00 0.000000e+00)
# sideDir     : (0.000000e+00 1.000000e+00 0.000000e+00)
# liftDir     : (0.000000e+00 0.000000e+00 1.000000e+00)
# rollAxis    : (1.000000e+00 0.000000e+00 0.000000e+00)
# pitchAxis   : (0.000000e+00 1.000000e+00 0.000000e+00)
# yawAxis     : (0.000000e+00 0.000000e+00 1.000000e+00)
# magUInf     : 6.000000e+01
# lRef        : 1.700000e-01
# Aref        : 4.200000e-02
# CofR        : (3.000000e-03 1.020000e-01 6.900000e-01)
#
# Time        	Cd            	Cs            	Cl            	CmRoll        	CmPitch       	CmYaw         	Cd(f)         	Cd(r)         	Cs(f)         	Cs(r)         	Cl(f)         	Cl(r)         
8e-07         	1.152142e+01	4.490707e+00	-1.556665e-01	3.123214e-01	-3.820514e-01	7.287097e+00	6.073033e+00	5.448390e+00	9.532450e+00	-5.041743e+00	-4.598846e-01	3.042181e-01
1.6e-06       	1.611839e+01	4.081730e+00	-2.390340e-01	2.331389e-01	-5.428953e-01	1.041886e+01	8.292336e+00	7.826058e+00	1.245972e+01	-8.377995e+00	-6.624123e-01	4.233783e-01
2.4e-06       	1.817697e+01	3.909836e+00	-3.257122e-01	2.422883e-01	-6.123352e-01	1.181795e+01	9.330773e+00	8.846197e+00	1.377287e+01	-9.863032e+00	-7.751913e-01	4.494791e-01
3.2e-06       	1.862612e+01	3.859471e+00	-3.386499e-01	2.410388e-01	-6.304619e-01	1.210382e+01	9.554099e+00	9.072022e+00	1.403356e+01	-1.017409e+01	-7.997868e-01	4.611369e-01
4e-06         	1.834553e+01	3.869420e+00	-3.142906e-01	2.315934e-01	-6.288174e-01	1.188917e+01	9.404360e+00	8.941173e+00	1.382388e+01	-9.954464e+00	-7.859627e-01	4.716721e-01
4.8e-06       	1.796505e+01	3.905439e+00	-2.980156e-01	2.341244e-01	-6.229596e-01	1.161018e+01	9.216651e+00	8.748402e+00	1.356290e+01	-9.657460e+00	-7.719674e-01	4.739518e-01
5.6e-06       	1.766721e+01	3.946293e+00	-3.035187e-01	2.522924e-01	-6.171590e-01	1.139541e+01	9.085895e+00	8.581310e+00	1.336856e+01	-9.422267e+00	-7.689183e-01	4.653996e-01
6.4e-06       	1.746275e+01	3.979648e+00	-3.230565e-01	2.772194e-01	-6.105118e-01	1.125122e+01	9.008593e+00	8.454155e+00	1.324105e+01	-9.261399e+00	-7.720400e-01	4.489836e-01
7.2e-06       	1.730369e+01	4.002816e+00	-3.464694e-01	3.011154e-01	-6.026076e-01	1.114257e+01	8.952959e+00	8.350728e+00	1.314398e+01	-9.141163e+00	-7.758423e-01	4.293729e-01
8e-06         	1.715168e+01	4.018131e+00	-3.660546e-01	3.193527e-01	-5.933933e-01	1.104162e+01	8.895193e+00	8.256488e+00	1.305068e+01	-9.032553e+00	-7.764206e-01	4.103660e-01
8.8e-06       	1.699173e+01	4.029334e+00	-3.792701e-01	3.313372e-01	-5.833692e-01	1.093652e+01	8.827202e+00	8.164528e+00	1.295118e+01	-8.921848e+00	-7.730042e-01	3.937341e-01
9.6e-06       	1.682710e+01	4.039138e+00	-3.876741e-01	3.391704e-01	-5.733405e-01	1.082814e+01	8.752722e+00	8.074381e+00	1.284771e+01	-8.808571e+00	-7.671776e-01	3.795035e-01
1.04e-05      	1.667239e+01	4.048470e+00	-3.945337e-01	3.456888e-01	-5.641000e-01	1.072538e+01	8.681885e+00	7.990507e+00	1.274962e+01	-8.701146e+00	-7.613669e-01	3.668332e-01
1.12e-05      	1.654314e+01	4.057103e+00	-4.027149e-01	3.530727e-01	-5.562334e-01	1.063792e+01	8.624641e+00	7.918496e+00	1.266647e+01	-8.609369e+00	-7.575909e-01	3.548759e-01
1.2e-05       	1.644732e+01	4.064552e+00	-4.139228e-01	3.625311e-01	-5.499340e-01	1.057078e+01	8.586189e+00	7.861127e+00	1.260305e+01	-8.538503e+00	-7.568954e-01	3.429726e-01
1.28e-05      	1.638300e+01	4.070603e+00	-4.284318e-01	3.742379e-01	-5.450688e-01	1.052296e+01	8.565738e+00	7.817262e+00	1.255827e+01	-8.487663e+00	-7.592847e-01	3.308529e-01
1.36e-05      	1.634437e+01	4.075462e+00	-4.456948e-01	3.878174e-01	-5.412000e-01	1.049111e+01	8.560003e+00	7.784368e+00	1.252884e+01	-8.453381e+00	-7.640474e-01	3.183526e-01
1.44e-05      	1.632436e+01	4.079843e+00	-4.646308e-01	4.025904e-01	-5.380203e-01	1.047040e+01	8.564770e+00	7.759589e+00	1.251032e+01	-8.430478e+00	-7.703357e-01	3.057049e-01
1.52e-05      	1.631451e+01	4.084434e+00	-4.839802e-01	4.177590e-01	-5.352059e-01	1.045496e+01	8.575016e+00	7.739498e+00	1.249718e+01	-8.412745e+00	-7.771961e-01	2.932158e-01
1.6e-05       	1.630657e+01	4.089797e+00	-5.027106e-01	4.326446e-01	-5.325264e-01	1.043911e+01	8.585929e+00	7.720640e+00	1.248400e+01	-8.394207e+00	-7.838817e-01	2.811711e-01
1.68e-05      	1.629373e+01	4.096211e+00	-5.202017e-01	4.468081e-01	-5.297535e-01	1.041843e+01	8.593671e+00	7.700055e+00	1.246653e+01	-8.370324e+00	-7.898543e-01	2.696526e-01
1.76e-05      	1.627181e+01	4.103770e+00	-5.363112e-01	4.601216e-01	-5.267441e-01	1.039047e+01	8.596028e+00	7.675785e+00	1.244235e+01	-8.338581e+00	-7.948997e-01	2.585885e-01
1.84e-05      	1.623925e+01	4.112443e+00	-5.512189e-01	4.726934e-01	-5.234328e-01	1.035457e+01	8.592320e+00	7.646934e+00	1.241079e+01	-8.298348e+00	-7.990423e-01	2.478234e-01
1.92e-05      	1.619700e+01	4.122220e+00	-5.653790e-01	4.848320e-01	-5.198292e-01	1.031188e+01	8.583331e+00	7.613667e+00	1.237299e+01	-8.250774e+00	-8.025187e-01	2.371397e-01
2e-05         	1.614757e+01	4.133166e+00	-5.794161e-01	4.969837e-01	-5.160050e-01	1.026457e+01	8.570769e+00	7.576802e+00	1.233116e+01	-8.197991e+00	-8.057130e-01	2.262969e-01
2.08e-05      	1.609439e+01	4.145398e+00	-5.939844e-01	5.096184e-01	-5.120743e-01	1.021534e+01	8.556811e+00	7.537574e+00	1.228804e+01	-8.142641e+00	-8.090665e-01	2.150822e-01
2.16e-05      	1.604102e+01	4.159039e+00	-6.096601e-01	5.231728e-01	-5.081445e-01	1.016688e+01	8.543681e+00	7.497336e+00	1.224639e+01	-8.087356e+00	-8.129746e-01	2.033144e-01
2.24e-05      	1.599059e+01	4.174204e+00	-6.267667e-01	5.378903e-01	-5.043259e-01	1.012150e+01	8.533185e+00	7.457405e+00	1.220860e+01	-8.034393e+00	-8.177093e-01	1.909426e-01
2.32e-05      	1.594554e+01	4.190925e+00	-6.455068e-01	5.539188e-01	-5.007018e-01	1.008088e+01	8.526690e+00	7.418853e+00	1.217634e+01	-7.985418e+00	-8.234552e-01	1.779483e-01
2.4e-05       	1.590739e+01	4.209211e+00	-6.659068e-01	5.712713e-01	-4.973234e-01	1.004599e+01	8.524968e+00	7.382425e+00	1.215060e+01	-7.941388e+00	-8.302767e-01	1.643700e-01
2.48e-05      	1.587674e+01	4.228946e+00	-6.878289e-01	5.898236e-01	-4.942094e-01	1.001710e+01	8.528195e+00	7.348547e+00	1.213157e+01	-7.902624e+00	-8.381238e-01	1.502949e-01
2.56e-05      	1.585337e+01	4.249959e+00	-7.110701e-01	6.094034e-01	-4.913326e-01	9.993853e+00	8.536091e+00	7.317284e+00	1.211883e+01	-7.868873e+00	-8.468676e-01	1.357975e-01
2.64e-05      	1.583608e+01	4.272008e+00	-7.353292e-01	6.297365e-01	-4.886157e-01	9.975217e+00	8.547778e+00	7.288305e+00	1.211122e+01	-7.839213e+00	-8.562803e-01	1.209511e-01
2.72e-05      	1.582295e+01	4.294762e+00	-7.601702e-01	6.504558e-01	-4.859638e-01	9.959643e+00	8.561930e+00	7.261019e+00	1.210702e+01	-7.812262e+00	-8.660489e-01	1.058787e-01
2.8e-05       	1.581178e+01	4.317863e+00	-7.851421e-01	6.711818e-01	-4.832737e-01	9.945404e+00	8.577069e+00	7.234706e+00	1.210434e+01	-7.786473e+00	-8.758447e-01	9.070261e-02
2.88e-05      	1.580036e+01	4.340981e+00	-8.098593e-01	6.916022e-01	-4.804402e-01	9.930784e+00	8.591780e+00	7.208576e+00	1.210127e+01	-7.760294e+00	-8.853699e-01	7.551055e-02
2.96e-05      	1.578670e+01	4.363863e+00	-8.340206e-01	7.114659e-01	-4.773786e-01	9.914292e+00	8.604815e+00	7.181883e+00	1.209622e+01	-7.732361e+00	-8.943889e-01	6.036830e-02
3.04e-05      	1.576915e+01	4.386233e+00	-8.574355e-01	7.306116e-01	-4.740149e-01	9.894690e+00	8.615189e+00	7.153966e+00	1.208781e+01	-7.701573e+00	-9.027327e-01	4.529713e-02
3.12e-05      	1.574652e+01	4.407843e+00	-8.799782e-01	7.489317e-01	-4.703092e-01	9.871108e+00	8.622193e+00	7.124329e+00	1.207503e+01	-7.667187e+00	-9.102983e-01	3.032009e-02
3.2e-05       	1.571809e+01	4.428551e+00	-9.015899e-01	7.663556e-01	-4.662558e-01	9.843085e+00	8.625401e+00	7.092690e+00	1.205736e+01	-7.628810e+00	-9.170507e-01	1.546084e-02
3.28e-05      	1.568357e+01	4.448247e+00	-9.222891e-01	7.828800e-01	-4.618528e-01	9.810497e+00	8.624665e+00	7.058905e+00	1.203462e+01	-7.586373e+00	-9.229973e-01	7.082338e-04
3.36e-05      	1.564294e+01	4.466846e+00	-9.421835e-01	7.985849e-01	-4.571271e-01	9.773398e+00	8.620052e+00	7.022883e+00	1.200682e+01	-7.539975e+00	-9.282189e-01	-1.396462e-02
3.44e-05      	1.559650e+01	4.484271e+00	-9.613790e-01	8.135448e-01	-4.521128e-01	9.732112e+00	8.611795e+00	6.984706e+00	1.197425e+01	-7.489977e+00	-9.328023e-01	-2.857672e-02
3.52e-05      	1.554472e+01	4.500499e+00	-9.799658e-01	8.278281e-01	-4.468588e-01	9.687093e+00	8.600190e+00	6.944534e+00	1.193734e+01	-7.436843e+00	-9.368417e-01	-4.312415e-02
3.6e-05       	1.548822e+01	4.515505e+00	-9.980659e-01	8.415264e-01	-4.414208e-01	9.638893e+00	8.585637e+00	6.902584e+00	1.189665e+01	-7.381140e+00	-9.404537e-01	-5.761219e-02
3.68e-05      	1.542769e+01	4.529318e+00	-1.015793e+00	8.547213e-01	-4.358545e-01	9.588106e+00	8.568568e+00	6.859125e+00	1.185276e+01	-7.323447e+00	-9.437510e-01	-7.204203e-02
3.76e-05      	1.536384e+01	4.541916e+00	-1.033172e+00	8.674408e-01	-4.302260e-01	9.535334e+00	8.549359e+00	6.814478e+00	1.180629e+01	-7.264376e+00	-9.468118e-01	-8.635986e-02
3.84e-05      	1.529733e+01	4.553351e+00	-1.050258e+00	8.797243e-01	-4.245886e-01	9.481139e+00	8.528389e+00	6.768940e+00	1.175781e+01	-7.204463e+00	-9.497175e-01	-1.005404e-01
3.92e-05      	1.522883e+01	4.563701e+00	-1.067092e+00	8.916027e-01	-4.189988e-01	9.426058e+00	8.506017e+00	6.722811e+00	1.170791e+01	-7.144208e+00	-9.525450e-01	-1.145473e-01
4e-05         	1.515900e+01	4.573032e+00	-1.083718e+00	9.031164e-01	-4.134968e-01	9.370606e+00	8.482614e+00	6.676382e+00	1.165712e+01	-7.084090e+00	-9.553557e-01	-1.283621e-01
4.08e-05      	1.508849e+01	4.581455e+00	-1.100169e+00	9.143007e-01	-4.081232e-01	9.315270e+00	8.458547e+00	6.629945e+00	1.160600e+01	-7.024542e+00	-9.582076e-01	-1.419612e-01
4.16e-05      	1.501800e+01	4.589053e+00	-1.116486e+00	9.251885e-01	-4.028970e-01	9.260539e+00	8.434187e+00	6.583810e+00	1.155507e+01	-6.966012e+00	-9.611399e-01	-1.553460e-01
4.24e-05      	1.494826e+01	4.595991e+00	-1.132716e+00	9.358309e-01	-3.978514e-01	9.206893e+00	8.409963e+00	6.538301e+00	1.150489e+01	-6.908898e+00	-9.642092e-01	-1.685064e-01
4.32e-05      	1.488009e+01	4.602373e+00	-1.148861e+00	9.462429e-01	-3.930031e-01	9.154849e+00	8.386286e+00	6.493800e+00	1.145604e+01	-6.853663e+00	-9.674339e-01	-1.814276e-01
4.4e-05       	1.481431e+01	4.608337e+00	-1.164931e+00	9.564390e-01	-3.883633e-01	9.104937e+00	8.363592e+00	6.450714e+00	1.140911e+01	-6.800769e+00	-9.708287e-01	-1.941021e-01
4.48e-05      	1.475165e+01	4.614023e+00	-1.180926e+00	9.664367e-01	-3.839364e-01	9.057610e+00	8.342262e+00	6.409388e+00	1.136462e+01	-6.750598e+00	-9.743993e-01	-2.065265e-01
4.56e-05      	1.469282e+01	4.619569e+00	-1.196819e+00	9.762302e-01	-3.797383e-01	9.013262e+00	8.322642e+00	6.370182e+00	1.132305e+01	-6.703477e+00	-9.781477e-01	-2.186712e-01
4.64e-05      	1.463840e+01	4.625099e+00	-1.212547e+00	9.857908e-01	-3.757794e-01	8.972194e+00	8.304993e+00	6.333412e+00	1.128474e+01	-6.659645e+00	-9.820528e-01	-2.304940e-01
4.72e-05      	1.458887e+01	4.630739e+00	-1.228069e+00	9.951045e-01	-3.720708e-01	8.934667e+00	8.289541e+00	6.299332e+00	1.125004e+01	-6.619298e+00	-9.861053e-01	-2.419636e-01
4.8e-05       	1.454458e+01	4.636585e+00	-1.243361e+00	1.004161e+00	-3.686168e-01	8.900826e+00	8.276449e+00	6.268128e+00	1.121912e+01	-6.582533e+00	-9.902974e-01	-2.530639e-01
4.88e-05      	1.450577e+01	4.642730e+00	-1.258374e+00	1.012944e+00	-3.654103e-01	8.870751e+00	8.265830e+00	6.239943e+00	1.119212e+01	-6.549386e+00	-9.945973e-01	-2.637767e-01
4.96e-05      	1.447259e+01	4.649231e+00	-1.273078e+00	1.021441e+00	-3.624319e-01	8.844452e+00	8.257736e+00	6.214854e+00	1.116907e+01	-6.519837e+00	-9.989708e-01	-2.741070e-01
5.04e-05      	1.444500e+01	4.656130e+00	-1.287448e+00	1.029653e+00	-3.596638e-01	8.821830e+00	8.252155e+00	6.192849e+00	1.114990e+01	-6.493765e+00	-1.003388e+00	-2.840600e-01
5.12e-05      	1.442286e+01	4.663436e+00	-1.301466e+00	1.037578e+00	-3.570852e-01	8.802744e+00	8.249009e+00	6.173853e+00	1.113446e+01	-6.471026e+00	-1.007818e+00	-2.936478e-01
5.2e-05       	1.440592e+01	4.671148e+00	-1.315128e+00	1.045207e+00	-3.546866e-01	8.786975e+00	8.248165e+00	6.157751e+00	1.112255e+01	-6.451401e+00	-1.012250e+00	-3.028771e-01
5.28e-05      	1.439376e+01	4.679237e+00	-1.328427e+00	1.052557e+00	-3.524259e-01	8.774212e+00	8.249438e+00	6.144323e+00	1.111383e+01	-6.434593e+00	-1.016639e+00	-3.117876e-01
5.36e-05      	1.438595e+01	4.687649e+00	-1.341302e+00	1.059595e+00	-3.502719e-01	8.764140e+00	8.252570e+00	6.133379e+00	1.110797e+01	-6.420316e+00	-1.020923e+00	-3.203789e-01
5.44e-05      	1.438192e+01	4.696328e+00	-1.353685e+00	1.066278e+00	-3.482005e-01	8.756377e+00	8.257238e+00	6.124682e+00	1.110454e+01	-6.408213e+00	-1.025043e+00	-3.286422e-01
5.52e-05      	1.438100e+01	4.705190e+00	-1.365526e+00	1.072585e+00	-3.461922e-01	8.750461e+00	8.263085e+00	6.117915e+00	1.110306e+01	-6.397866e+00	-1.028955e+00	-3.365707e-01
5.6e-05       	1.438248e+01	4.714153e+00	-1.376810e+00	1.078511e+00	-3.442129e-01	8.745929e+00	8.269750e+00	6.112728e+00	1.110301e+01	-6.388853e+00	-1.032618e+00	-3.441919e-01
5.68e-05      	1.438564e+01	4.723135e+00	-1.387482e+00	1.084024e+00	-3.422298e-01	8.742325e+00	8.276845e+00	6.108796e+00	1.110389e+01	-6.380758e+00	-1.035971e+00	-3.515111e-01
5.76e-05      	1.438976e+01	4.732054e+00	-1.397500e+00	1.089097e+00	-3.402145e-01	8.739185e+00	8.283975e+00	6.105781e+00	1.110521e+01	-6.373158e+00	-1.038964e+00	-3.585353e-01
5.84e-05      	1.439412e+01	4.740816e+00	-1.406835e+00	1.093712e+00	-3.381419e-01	8.736067e+00	8.290773e+00	6.103349e+00	1.110647e+01	-6.365659e+00	-1.041559e+00	-3.652756e-01
5.92e-05      	1.439810e+01	4.749339e+00	-1.415458e+00	1.097851e+00	-3.359883e-01	8.732574e+00	8.296899e+00	6.101197e+00	1.110724e+01	-6.357905e+00	-1.043717e+00	-3.717406e-01
6e-05         	1.440109e+01	4.757544e+00	-1.423379e+00	1.101530e+00	-3.337243e-01	8.728355e+00	8.302077e+00	6.099016e+00	1.110713e+01	-6.349583e+00	-1.045414e+00	-3.779652e-01
6.08e-05      	1.440263e+01	4.765377e+00	-1.430644e+00	1.104785e+00	-3.313229e-01	8.723121e+00	8.306099e+00	6.096530e+00	1.110581e+01	-6.340433e+00	-1.046645e+00	-3.839989e-01
6.16e-05      	1.440228e+01	4.772769e+00	-1.437282e+00	1.107642e+00	-3.287685e-01	8.716625e+00	8.308784e+00	6.093500e+00	1.110301e+01	-6.330240e+00	-1.047410e+00	-3.898726e-01
6.24e-05      	1.439976e+01	4.779694e+00	-1.443353e+00	1.110144e+00	-3.260413e-01	8.708710e+00	8.310025e+00	6.089737e+00	1.109856e+01	-6.318862e+00	-1.047718e+00	-3.956349e-01
6.32e-05      	1.439482e+01	4.786112e+00	-1.448916e+00	1.112334e+00	-3.231330e-01	8.699254e+00	8.309743e+00	6.085076e+00	1.109231e+01	-6.306198e+00	-1.047591e+00	-4.013248e-01
6.4e-05       	1.438730e+01	4.792008e+00	-1.454030e+00	1.114251e+00	-3.200252e-01	8.688172e+00	8.307902e+00	6.079401e+00	1.108418e+01	-6.292168e+00	-1.047040e+00	-4.069898e-01
6.48e-05      	1.437715e+01	4.797380e+00	-1.458752e+00	1.115931e+00	-3.167243e-01	8.675456e+00	8.304509e+00	6.072646e+00	1.107415e+01	-6.276766e+00	-1.046100e+00	-4.126519e-01
6.56e-05      	1.436436e+01	4.802222e+00	-1.463161e+00	1.117426e+00	-3.132350e-01	8.661134e+00	8.299605e+00	6.064753e+00	1.106224e+01	-6.260023e+00	-1.044815e+00	-4.183453e-01
6.64e-05      	1.434899e+01	4.806547e+00	-1.467300e+00	1.118764e+00	-3.095568e-01	8.645265e+00	8.293257e+00	6.055729e+00	1.104854e+01	-6.241991e+00	-1.043207e+00	-4.240930e-01
6.72e-05      	1.433119e+01	4.810364e+00	-1.471229e+00	1.119985e+00	-3.056965e-01	8.627968e+00	8.285578e+00	6.045608e+00	1.103315e+01	-6.222786e+00	-1.041311e+00	-4.299178e-01
6.8e-05       	1.431111e+01	4.813693e+00	-1.474990e+00	1.121110e+00	-3.016758e-01	8.609358e+00	8.276664e+00	6.034445e+00	1.101620e+01	-6.202511e+00	-1.039171e+00	-4.358192e-01
6.88e-05      	1.428894e+01	4.816555e+00	-1.478627e+00	1.122162e+00	-2.975091e-01	8.589566e+00	8.266634e+00	6.022309e+00	1.099784e+01	-6.181288e+00	-1.036823e+00	-4.418044e-01
6.96e-05      	1.426493e+01	4.819006e+00	-1.482179e+00	1.123161e+00	-2.932105e-01	8.568763e+00	8.255627e+00	6.009304e+00	1.097827e+01	-6.159260e+00	-1.034300e+00	-4.478788e-01
7.04e-05      	1.423937e+01	4.821079e+00	-1.485673e+00	1.124125e+00	-2.887903e-01	8.547144e+00	8.243809e+00	5.995559e+00	1.095768e+01	-6.136605e+00	-1.031627e+00	-4.540463e-01
7.12e-05      	1.421244e+01	4.822805e+00	-1.489126e+00	1.125064e+00	-2.842776e-01	8.524859e+00	8.231284e+00	5.981157e+00	1.093626e+01	-6.113456e+00	-1.028841e+00	-4.602855e-01
7.2e-05       	1.418439e+01	4.824232e+00	-1.492584e+00	1.126012e+00	-2.796945e-01	8.502076e+00	8.218207e+00	5.966183e+00	1.091419e+01	-6.089961e+00	-1.025986e+00	-4.665974e-01
7.28e-05      	1.415545e+01	4.825422e+00	-1.496054e+00	1.126975e+00	-2.750671e-01	8.478952e+00	8.204701e+00	5.950751e+00	1.089166e+01	-6.066241e+00	-1.023094e+00	-4.729599e-01
7.36e-05      	1.412583e+01	4.826407e+00	-1.499549e+00	1.127960e+00	-2.704169e-01	8.455630e+00	8.190873e+00	5.934954e+00	1.086883e+01	-6.042426e+00	-1.020191e+00	-4.793574e-01
7.44e-05      	1.409578e+01	4.827238e+00	-1.503049e+00	1.128947e+00	-2.657785e-01	8.432274e+00	8.176839e+00	5.918945e+00	1.084589e+01	-6.018655e+00	-1.017303e+00	-4.857459e-01
7.52e-05      	1.406555e+01	4.827981e+00	-1.506543e+00	1.129944e+00	-2.611565e-01	8.409003e+00	8.162719e+00	5.902831e+00	1.082299e+01	-5.995012e+00	-1.014428e+00	-4.921153e-01
7.6e-05       	1.403527e+01	4.828672e+00	-1.510001e+00	1.130929e+00	-2.565698e-01	8.385907e+00	8.148562e+00	5.886705e+00	1.080024e+01	-5.971571e+00	-1.011570e+00	-4.984306e-01
7.68e-05      	1.400511e+01	4.829340e+00	-1.513394e+00	1.131885e+00	-2.520368e-01	8.363094e+00	8.134440e+00	5.870671e+00	1.077776e+01	-5.948424e+00	-1.008734e+00	-5.046600e-01
7.76e-05      	1.397522e+01	4.829989e+00	-1.516692e+00	1.132789e+00	-2.475803e-01	8.340636e+00	8.120400e+00	5.854822e+00	1.075563e+01	-5.925641e+00	-1.005926e+00	-5.107658e-01
7.84e-05      	1.394575e+01	4.830649e+00	-1.519900e+00	1.133635e+00	-2.432230e-01	8.318636e+00	8.106511e+00	5.839242e+00	1.073396e+01	-5.903312e+00	-1.003173e+00	-5.167272e-01
7.92e-05      	1.391678e+01	4.831322e+00	-1.522981e+00	1.134412e+00	-2.389748e-01	8.297148e+00	8.092803e+00	5.823978e+00	1.071281e+01	-5.881487e+00	-1.000465e+00	-5.225156e-01
8e-05         	1.388837e+01	4.832024e+00	-1.525891e+00	1.135102e+00	-2.348294e-01	8.276189e+00	8.079287e+00	5.809082e+00	1.069220e+01	-5.860177e+00	-9.977751e-01	-5.281162e-01
8.08e-05      	1.386062e+01	4.832784e+00	-1.528631e+00	1.135707e+00	-2.307904e-01	8.255796e+00	8.066018e+00	5.794604e+00	1.067219e+01	-5.839404e+00	-9.951057e-01	-5.335249e-01
8.16e-05      	1.383360e+01	4.833616e+00	-1.531161e+00	1.136192e+00	-2.268570e-01	8.235994e+00	8.052990e+00	5.780606e+00	1.065280e+01	-5.819186e+00	-9.924374e-01	-5.387234e-01
8.24e-05      	1.380730e+01	4.834525e+00	-1.533480e+00	1.136566e+00	-2.230471e-01	8.216806e+00	8.040215e+00	5.767082e+00	1.063407e+01	-5.799544e+00	-9.897871e-01	-5.436928e-01
8.32e-05      	1.378180e+01	4.835535e+00	-1.535557e+00	1.136810e+00	-2.193553e-01	8.198263e+00	8.027708e+00	5.754088e+00	1.061603e+01	-5.780496e+00	-9.871336e-01	-5.484230e-01
8.4e-05       	1.375702e+01	4.836625e+00	-1.537420e+00	1.136957e+00	-2.157811e-01	8.180324e+00	8.015467e+00	5.741553e+00	1.059864e+01	-5.762011e+00	-9.844909e-01	-5.529287e-01
8.48e-05      	1.373296e+01	4.837786e+00	-1.539069e+00	1.137006e+00	-2.123020e-01	8.162962e+00	8.003487e+00	5.729475e+00	1.058186e+01	-5.744070e+00	-9.818365e-01	-5.572326e-01
8.56e-05      	1.370968e+01	4.839024e+00	-1.540478e+00	1.136925e+00	-2.089254e-01	8.146191e+00	7.991766e+00	5.717915e+00	1.056570e+01	-5.726679e+00	-9.791642e-01	-5.613134e-01
8.64e-05      	1.368714e+01	4.840358e+00	-1.541622e+00	1.136722e+00	-2.056352e-01	8.129965e+00	7.980289e+00	5.706846e+00	1.055014e+01	-5.709786e+00	-9.764463e-01	-5.651759e-01
8.72e-05      	1.366525e+01	4.841723e+00	-1.542514e+00	1.136389e+00	-2.024281e-01	8.114241e+00	7.969012e+00	5.696234e+00	1.053510e+01	-5.693380e+00	-9.736851e-01	-5.688289e-01
8.8e-05       	1.364402e+01	4.843129e+00	-1.543175e+00	1.135929e+00	-1.993084e-01	8.099020e+00	7.957938e+00	5.686079e+00	1.052058e+01	-5.677456e+00	-9.708957e-01	-5.722789e-01
8.88e-05      	1.362339e+01	4.844557e+00	-1.543585e+00	1.135341e+00	-1.962462e-01	8.084218e+00	7.947035e+00	5.676353e+00	1.050650e+01	-5.661939e+00	-9.680388e-01	-5.755465e-01
8.96e-05      	1.360327e+01	4.845988e+00	-1.543761e+00	1.134634e+00	-1.932275e-01	8.069790e+00	7.936269e+00	5.667002e+00	1.049278e+01	-5.646796e+00	-9.651078e-01	-5.786527e-01
9.04e-05      	1.358364e+01	4.847431e+00	-1.543731e+00	1.133823e+00	-1.902461e-01	8.055686e+00	7.925645e+00	5.658000e+00	1.047940e+01	-5.631971e+00	-9.621116e-01	-5.816193e-01
9.12e-05      	1.356441e+01	4.848868e+00	-1.543519e+00	1.132919e+00	-1.873099e-01	8.041854e+00	7.915125e+00	5.649288e+00	1.046629e+01	-5.617420e+00	-9.590696e-01	-5.844498e-01
9.2e-05       	1.354557e+01	4.850287e+00	-1.543128e+00	1.131899e+00	-1.844090e-01	8.028277e+00	7.904684e+00	5.640887e+00	1.045342e+01	-5.603134e+00	-9.559728e-01	-5.871549e-01
9.28e-05      	1.352703e+01	4.851684e+00	-1.542585e+00	1.130782e+00	-1.815313e-01	8.014887e+00	7.894299e+00	5.632735e+00	1.044073e+01	-5.589045e+00	-9.528237e-01	-5.897612e-01
9.36e-05      	1.350871e+01	4.853046e+00	-1.541880e+00	1.129568e+00	-1.786605e-01	8.001621e+00	7.883923e+00	5.624786e+00	1.042814e+01	-5.575098e+00	-9.496004e-01	-5.922795e-01
9.44e-05      	1.349051e+01	4.854369e+00	-1.541048e+00	1.128285e+00	-1.757814e-01	7.988408e+00	7.873542e+00	5.616972e+00	1.041559e+01	-5.561224e+00	-9.463052e-01	-5.947423e-01
9.52e-05      	1.347241e+01	4.855639e+00	-1.540089e+00	1.126915e+00	-1.728993e-01	7.975229e+00	7.863122e+00	5.609293e+00	1.040305e+01	-5.547410e+00	-9.429439e-01	-5.971453e-01
9.6e-05       	1.345434e+01	4.856865e+00	-1.539058e+00	1.125498e+00	-1.700132e-01	7.961999e+00	7.852668e+00	5.601671e+00	1.039043e+01	-5.533567e+00	-9.395422e-01	-5.995157e-01
9.68e-05      	1.343621e+01	4.858010e+00	-1.537931e+00	1.124009e+00	-1.671158e-01	7.948661e+00	7.842113e+00	5.594095e+00	1.037767e+01	-5.519656e+00	-9.360812e-01	-6.018495e-01
9.76e-05      	1.341797e+01	4.859098e+00	-1.536715e+00	1.122449e+00	-1.642134e-01	7.935183e+00	7.831434e+00	5.586536e+00	1.036473e+01	-5.505634e+00	-9.325709e-01	-6.041440e-01
9.84e-05      	1.339955e+01	4.860115e+00	-1.535410e+00	1.120817e+00	-1.612921e-01	7.921508e+00	7.820590e+00	5.578956e+00	1.035157e+01	-5.491451e+00	-9.289972e-01	-6.064130e-01
9.92e-05      	1.338090e+01	4.861041e+00	-1.534061e+00	1.119139e+00	-1.583495e-01	7.907606e+00	7.809590e+00	5.571311e+00	1.033813e+01	-5.477085e+00	-9.253802e-01	-6.086811e-01
0.0001        	1.336199e+01	4.861883e+00	-1.532668e+00	1.117411e+00	-1.553743e-01	7.893436e+00	7.798406e+00	5.563584e+00	1.032438e+01	-5.462495e+00	-9.217081e-01	-6.109595e-01
0.0001008     	1.334276e+01	4.862655e+00	-1.531277e+00	1.115669e+00	-1.523848e-01	7.878980e+00	7.787047e+00	5.555710e+00	1.031031e+01	-5.447653e+00	-9.180233e-01	-6.132537e-01
0.0001016     	1.332322e+01	4.863343e+00	-1.529879e+00	1.113888e+00	-1.493743e-01	7.864230e+00	7.775498e+00	5.547722e+00	1.029590e+01	-5.432558e+00	-9.143137e-01	-6.155650e-01
0.0001024     	1.330338e+01	4.863976e+00	-1.528448e+00	1.112056e+00	-1.463459e-01	7.849186e+00	7.763746e+00	5.539633e+00	1.028117e+01	-5.417198e+00	-9.105697e-01	-6.178780e-01
0.0001032     	1.328319e+01	4.864544e+00	-1.527021e+00	1.110209e+00	-1.432917e-01	7.833810e+00	7.751806e+00	5.531388e+00	1.026608e+01	-5.401538e+00	-9.068021e-01	-6.202187e-01
0.000104      	1.326269e+01	4.865046e+00	-1.525601e+00	1.108322e+00	-1.402360e-01	7.818140e+00	7.739665e+00	5.523022e+00	1.025066e+01	-5.385617e+00	-9.030366e-01	-6.225646e-01
0.0001048     	1.324184e+01	4.865514e+00	-1.524120e+00	1.106378e+00	-1.371771e-01	7.802164e+00	7.727298e+00	5.514542e+00	1.023492e+01	-5.369408e+00	-8.992370e-01	-6.248828e-01
0.0001056     	1.322062e+01	4.865934e+00	-1.522592e+00	1.104383e+00	-1.340978e-01	7.785866e+00	7.714695e+00	5.505929e+00	1.021883e+01	-5.352899e+00	-8.953938e-01	-6.271982e-01
0.0001064     	1.319904e+01	4.866292e+00	-1.521054e+00	1.102350e+00	-1.310099e-01	7.769253e+00	7.701872e+00	5.497171e+00	1.020240e+01	-5.336107e+00	-8.915368e-01	-6.295171e-01
0.0001072     	1.317715e+01	4.866623e+00	-1.519475e+00	1.100250e+00	-1.279325e-01	7.752362e+00	7.688825e+00	5.488324e+00	1.018567e+01	-5.319051e+00	-8.876700e-01	-6.318051e-01
0.000108      	1.315495e+01	4.866929e+00	-1.517874e+00	1.098116e+00	-1.248700e-01	7.735213e+00	7.675591e+00	5.479359e+00	1.016868e+01	-5.301748e+00	-8.838072e-01	-6.340672e-01
0.0001088     	1.313244e+01	4.867201e+00	-1.516225e+00	1.095923e+00	-1.218104e-01	7.717794e+00	7.662141e+00	5.470295e+00	1.015139e+01	-5.284194e+00	-8.799228e-01	-6.363020e-01
0.0001096     	1.310970e+01	4.867460e+00	-1.514575e+00	1.093713e+00	-1.187818e-01	7.700153e+00	7.648561e+00	5.461135e+00	1.013388e+01	-5.266423e+00	-8.760692e-01	-6.385057e-01
0.0001104     	1.308668e+01	4.867709e+00	-1.512881e+00	1.091452e+00	-1.157712e-01	7.682299e+00	7.634794e+00	5.451889e+00	1.011615e+01	-5.248444e+00	-8.722115e-01	-6.406690e-01
0.0001112     	1.306338e+01	4.867898e+00	-1.511157e+00	1.089146e+00	-1.127905e-01	7.664253e+00	7.620837e+00	5.442545e+00	1.009820e+01	-5.230304e+00	-8.683689e-01	-6.427878e-01
0.000112      	1.303984e+01	4.868115e+00	-1.509349e+00	1.086777e+00	-1.098437e-01	7.646021e+00	7.606695e+00	5.433141e+00	1.008008e+01	-5.211963e+00	-8.645184e-01	-6.448309e-01
0.0001128     	1.301600e+01	4.868289e+00	-1.507481e+00	1.084364e+00	-1.069342e-01	7.627605e+00	7.592362e+00	5.423633e+00	1.006175e+01	-5.193461e+00	-8.606748e-01	-6.468064e-01
0.0001136     	1.299197e+01	4.868511e+00	-1.505582e+00	1.081936e+00	-1.040698e-01	7.609050e+00	7.577922e+00	5.414050e+00	1.004331e+01	-5.174795e+00	-8.568610e-01	-6.487214e-01
0.0001144     	1.296775e+01	4.868700e+00	-1.503656e+00	1.079473e+00	-1.012474e-01	7.590379e+00	7.563346e+00	5.404400e+00	1.002473e+01	-5.156029e+00	-8.530755e-01	-6.505806e-01
0.0001152     	1.294337e+01	4.868939e+00	-1.501618e+00	1.076941e+00	-9.847810e-02	7.571615e+00	7.548628e+00	5.394745e+00	1.000608e+01	-5.137146e+00	-8.492873e-01	-6.523311e-01
0.000116      	1.291884e+01	4.869141e+00	-1.499542e+00	1.074369e+00	-9.578647e-02	7.552774e+00	7.533786e+00	5.385049e+00	9.987345e+00	-5.118204e+00	-8.455573e-01	-6.539843e-01
0.0001168     	1.289418e+01	4.869406e+00	-1.497382e+00	1.071766e+00	-9.316632e-02	7.533881e+00	7.518856e+00	5.375324e+00	9.968583e+00	-5.099178e+00	-8.418576e-01	-6.555249e-01
0.0001176     	1.286937e+01	4.869622e+00	-1.495091e+00	1.069082e+00	-9.057909e-02	7.514936e+00	7.503769e+00	5.365604e+00	9.949747e+00	-5.080125e+00	-8.381244e-01	-6.569662e-01
0.0001184     	1.284448e+01	4.869878e+00	-1.492715e+00	1.066364e+00	-8.805348e-02	7.495967e+00	7.488605e+00	5.355877e+00	9.930906e+00	-5.061028e+00	-8.344108e-01	-6.583039e-01
0.0001192     	1.281950e+01	4.870100e+00	-1.490282e+00	1.063603e+00	-8.560288e-02	7.476979e+00	7.473355e+00	5.346148e+00	9.912029e+00	-5.041929e+00	-8.307436e-01	-6.595379e-01
0.00012       	1.279447e+01	4.870405e+00	-1.487686e+00	1.060773e+00	-8.320206e-02	7.457975e+00	7.458008e+00	5.336462e+00	9.893178e+00	-5.022773e+00	-8.270449e-01	-6.606408e-01
0.0001208     	1.276925e+01	4.870662e+00	-1.485046e+00	1.057920e+00	-8.088241e-02	7.438961e+00	7.442546e+00	5.326706e+00	9.874292e+00	-5.003630e+00	-8.234053e-01	-6.616405e-01
0.0001216     	1.274403e+01	4.870995e+00	-1.482307e+00	1.055035e+00	-7.864081e-02	7.419965e+00	7.427049e+00	5.316979e+00	9.855462e+00	-4.984467e+00	-8.197943e-01	-6.625127e-01
0.0001224     	1.271871e+01	4.871293e+00	-1.479486e+00	1.052100e+00	-7.646389e-02	7.400975e+00	7.411456e+00	5.307257e+00	9.836622e+00	-4.965329e+00	-8.162071e-01	-6.632793e-01
0.0001232     	1.269331e+01	4.871675e+00	-1.476493e+00	1.049098e+00	-7.435452e-02	7.381975e+00	7.395753e+00	5.297558e+00	9.817813e+00	-4.946137e+00	-8.126008e-01	-6.638918e-01
0.000124      	1.266785e+01	4.872049e+00	-1.473416e+00	1.046054e+00	-7.231993e-02	7.362980e+00	7.379980e+00	5.287872e+00	9.799005e+00	-4.926956e+00	-8.090277e-01	-6.643878e-01
0.0001248     	1.264229e+01	4.872440e+00	-1.470187e+00	1.042951e+00	-7.033980e-02	7.343985e+00	7.364097e+00	5.278194e+00	9.780205e+00	-4.907765e+00	-8.054332e-01	-6.647537e-01
0.0001256     	1.261664e+01	4.872772e+00	-1.466871e+00	1.039801e+00	-6.841903e-02	7.324992e+00	7.348122e+00	5.268521e+00	9.761378e+00	-4.888606e+00	-8.018546e-01	-6.650166e-01
0.0001264     	1.259099e+01	4.873192e+00	-1.463460e+00	1.036621e+00	-6.657767e-02	7.305984e+00	7.332118e+00	5.258877e+00	9.742580e+00	-4.869388e+00	-7.983077e-01	-6.651523e-01
0.0001272     	1.256527e+01	4.873591e+00	-1.459936e+00	1.033392e+00	-6.480041e-02	7.286972e+00	7.316025e+00	5.249241e+00	9.723768e+00	-4.850177e+00	-7.947683e-01	-6.651675e-01
0.000128      	1.253948e+01	4.873968e+00	-1.456284e+00	1.030102e+00	-6.308612e-02	7.267966e+00	7.299841e+00	5.239636e+00	9.704950e+00	-4.830982e+00	-7.912281e-01	-6.650558e-01
0.0001288     	1.251354e+01	4.874356e+00	-1.452489e+00	1.026766e+00	-6.142354e-02	7.248922e+00	7.283538e+00	5.230005e+00	9.686100e+00	-4.811744e+00	-7.876680e-01	-6.648209e-01
0.0001296     	1.248755e+01	4.874685e+00	-1.448594e+00	1.023369e+00	-5.981142e-02	7.229880e+00	7.267142e+00	5.220404e+00	9.667223e+00	-4.792538e+00	-7.841082e-01	-6.644853e-01
0.0001304     	1.246152e+01	4.875073e+00	-1.444595e+00	1.019932e+00	-5.826646e-02	7.210806e+00	7.250692e+00	5.210829e+00	9.648343e+00	-4.773269e+00	-7.805638e-01	-6.640309e-01
0.0001312     	1.243547e+01	4.875450e+00	-1.440513e+00	1.016449e+00	-5.678867e-02	7.191722e+00	7.234185e+00	5.201286e+00	9.629447e+00	-4.753997e+00	-7.770454e-01	-6.634681e-01
0.000132      	1.240930e+01	4.875855e+00	-1.436283e+00	1.012912e+00	-5.537047e-02	7.172595e+00	7.217561e+00	5.191738e+00	9.610523e+00	-4.734668e+00	-7.735118e-01	-6.627708e-01
0.0001328     	1.238304e+01	4.876232e+00	-1.431944e+00	1.009323e+00	-5.399309e-02	7.153443e+00	7.200845e+00	5.182200e+00	9.591559e+00	-4.715327e+00	-7.699649e-01	-6.619787e-01