# Wall shear stress
# Time        	patch         	min           	max           
8e-05         	back	(-2.162556e+01 -5.427722e+00 -1.400870e+01)	(4.908055e+00 5.101100e+00 3.103169e+01)
8e-05         	carMirror	(-1.015607e+02 -3.224783e+01 -4.916574e+01)	(1.414361e+01 8.304038e+01 6.093603e+01)
0.00016       	back	(-3.647740e+01 -6.478045e+00 -2.310202e+01)	(1.499366e+01 1.909304e+01 5.655498e+01)
0.00016       	carMirror	(-1.676627e+02 -4.807502e+01 -7.422306e+01)	(3.093200e+01 1.181323e+02 1.079170e+02)
0.00024       	back	(-4.343313e+01 -1.377534e+01 -3.130175e+01)	(2.032015e+01 1.314678e+01 4.328508e+01)
0.00024       	carMirror	(-2.417401e+02 -6.784369e+01 -9.035757e+01)	(3.467401e+01 1.508717e+02 1.649788e+02)
0.00032       	back	(-2.459889e+01 -1.029675e+01 -3.277653e+01)	(2.239614e+01 1.228316e+01 3.535025e+01)
0.00032       	carMirror	(-2.028302e+02 -7.742063e+01 -9.693091e+01)	(3.428945e+01 1.645175e+02 8.103064e+01)
0.0004        	back	(-2.193543e+01 -7.839969e+00 -3.116259e+01)	(2.272957e+01 1.226717e+01 3.746915e+01)
0.0004        	carMirror	(-1.682097e+02 -6.672204e+01 -9.680500e+01)	(4.226290e+01 1.707701e+02 1.041084e+02)
0.00048       	back	(-2.440183e+01 -6.454356e+00 -3.070983e+01)	(2.372649e+01 1.281068e+01 4.507716e+01)
0.00048       	carMirror	(-1.388945e+02 -5.184495e+01 -1.009642e+02)	(2.943741e+01 1.758346e+02 9.638867e+01)
0.00056       	back	(-2.682853e+01 -4.929806e+00 -2.877357e+01)	(2.068116e+01 1.102930e+01 4.868198e+01)
0.00056       	carMirror	(-1.316821e+02 -4.505258e+01 -9.967504e+01)	(3.940862e+01 1.769099e+02 5.714438e+01)
0.00064       	back	(-3.490783e+01 -5.605150e+00 -2.677211e+01)	(1.384269e+01 9.783235e+00 6.246583e+01)
0.00064       	carMirror	(-1.255810e+02 -4.029237e+01 -1.025778e+02)	(2.950168e+01 1.709983e+02 6.049175e+01)
0.00072       	back	(-3.665291e+01 -5.998091e+00 -2.805276e+01)	(2.428274e+01 1.039414e+01 7.013196e+01)
0.00072       	carMirror	(-1.252639e+02 -3.792299e+01 -9.772675e+01)	(2.423126e+01 1.667382e+02 5.808380e+01)
0.0008        	back	(-4.056354e+01 -7.944279e+00 -3.854493e+01)	(3.055446e+01 1.113932e+01 7.096290e+01)
0.0008        	carMirror	(-1.414384e+02 -3.923403e+01 -1.097717e+02)	(3.258228e+01 1.906291e+02 5.834280e+01)
0.00088       	back	(-4.165193e+01 -7.708609e+00 -3.672682e+01)	(2.905365e+01 1.113290e+01 7.123305e+01)
0.00088       	carMirror	(-1.393129e+02 -4.864918e+01 -1.107491e+02)	(3.672056e+01 1.911631e+02 6.067675e+01)
0.00096       	back	(-3.858848e+01 -7.343984e+00 -3.202285e+01)	(2.331636e+01 1.169612e+01 6.899741e+01)
0.00096       	carMirror	(-1.345213e+02 -4.911886e+01 -1.067456e+02)	(2.993685e+01 1.866426e+02 5.264716e+01)
0.00104       	back	(-3.529934e+01 -5.233050e+00 -2.244908e+01)	(1.777899e+01 1.020296e+01 6.164246e+01)
0.00104       	carMirror	(-1.260930e+02 -4.218353e+01 -1.019090e+02)	(2.413415e+01 1.729443e+02 5.108319e+01)
0.00112       	back	(-3.558798e+01 -4.732916e+00 -1.437799e+01)	(1.603359e+01 1.002780e+01 6.192301e+01)
0.00112       	carMirror	(-1.221062e+02 -3.968486e+01 -1.009287e+02)	(1.835249e+01 1.698912e+02 5.085624e+01)
0.0012        	back	(-3.674456e+01 -5.354678e+00 -1.152016e+01)	(1.498108e+01 1.123968e+01 6.632494e+01)
0.0012        	carMirror	(-1.217055e+02 -3.563360e+01 -9.322403e+01)	(1.969074e+01 1.618483e+02 5.508291e+01)
0.00128       	back	(-3.635640e+01 -5.178339e+00 -1.350607e+01)	(1.945866e+01 1.111705e+01 6.534334e+01)
0.00128       	carMirror	(-1.221199e+02 -3.605415e+01 -9.014217e+01)	(1.773016e+01 1.602712e+02 5.457929e+01)
0.00136       	back	(-3.689160e+01 -5.599190e+00 -2.125776e+01)	(2.155239e+01 1.090774e+01 6.447524e+01)
0.00136       	carMirror	(-1.196550e+02 -3.000292e+01 -9.020285e+01)	(1.824486e+01 1.554453e+02 5.199061e+01)
0.00144       	back	(-3.674584e+01 -5.786298e+00 -2.345177e+01)	(2.233997e+01 1.046441e+01 6.109095e+01)
0.00144       	carMirror	(-1.174413e+02 -3.133874e+01 -8.801259e+01)	(2.173483e+01 1.535488e+02 5.059192e+01)
0.00152       	back	(-3.631371e+01 -5.448943e+00 -2.003990e+01)	(2.100721e+01 1.063519e+01 6.203954e+01)
0.00152       	carMirror	(-1.292673e+02 -3.563919e+01 -8.198822e+01)	(2.636987e+01 1.272040e+02 5.160245e+01)
0.0016        	back	(-3.725579e+01 -5.291592e+00 -1.555929e+01)	(1.913536e+01 1.113614e+01 6.568525e+01)
0.0016        	carMirror	(-1.257648e+02 -3.755206e+01 -7.865905e+01)	(2.178010e+01 1.193270e+02 5.057467e+01)
0.00168       	back	(-3.845491e+01 -5.367993e+00 -1.866741e+01)	(1.691269e+01 1.126296e+01 6.755487e+01)
0.00168       	carMirror	(-1.249730e+02 -3.823046e+01 -7.788651e+01)	(2.048791e+01 1.188752e+02 5.161544e+01)
0.00176       	back	(-4.001835e+01 -5.500733e+00 -2.082157e+01)	(1.771103e+01 1.165543e+01 7.016397e+01)
0.00176       	carMirror	(-1.219089e+02 -3.823496e+01 -7.429182e+01)	(1.991578e+01 1.149464e+02 5.559657e+01)
0.00184       	back	(-4.058346e+01 -5.680680e+00 -2.319753e+01)	(2.170928e+01 1.193049e+01 7.186095e+01)
0.00184       	carMirror	(-1.105322e+02 -3.963902e+01 -6.662673e+01)	(2.221406e+01 8.805342e+01 5.547512e+01)
0.00192       	back	(-4.066963e+01 -5.997777e+00 -2.650357e+01)	(2.296712e+01 1.201602e+01 7.198455e+01)
0.00192       	carMirror	(-1.120543e+02 -4.083668e+01 -7.004793e+01)	(2.401468e+01 8.930774e+01 5.513787e+01)
0.002         	back	(-4.103979e+01 -6.127921e+00 -2.848331e+01)	(2.334925e+01 1.224606e+01 7.274533e+01)
0.002         	carMirror	(-1.085505e+02 -4.231478e+01 -6.948062e+01)	(2.797029e+01 8.547682e+01 5.546120e+01)
0.00208       	back	(-4.171186e+01 -6.130574e+00 -2.749564e+01)	(2.312394e+01 1.243711e+01 7.367113e+01)
0.00208       	carMirror	(-1.025044e+02 -4.223460e+01 -7.014731e+01)	(2.588009e+01 7.930430e+01 5.657370e+01)
0.00216       	back	(-4.153938e+01 -6.512869e+00 -2.640839e+01)	(2.463826e+01 1.301983e+01 7.551637e+01)
0.00216       	carMirror	(-1.060695e+02 -4.189349e+01 -7.116485e+01)	(2.307075e+01 8.069714e+01 5.524349e+01)
0.00224       	back	(-4.089275e+01 -6.191213e+00 -2.629947e+01)	(2.369956e+01 1.278672e+01 7.505042e+01)
0.00224       	carMirror	(-1.113269e+02 -4.151846e+01 -7.363726e+01)	(2.711998e+01 8.296733e+01 5.491884e+01)
0.00232       	back	(-3.922659e+01 -5.656796e+00 -2.470183e+01)	(2.161973e+01 1.165991e+01 6.691997e+01)
0.00232       	carMirror	(-1.142710e+02 -4.142213e+01 -6.792510e+01)	(3.162356e+01 8.181411e+01 5.485392e+01)
0.0024        	back	(-3.744349e+01 -6.284253e+00 -2.311024e+01)	(2.403599e+01 1.173461e+01 6.666060e+01)
0.0024        	carMirror	(-1.146707e+02 -4.205036e+01 -5.975254e+01)	(4.298423e+01 8.004769e+01 5.282067e+01)
0.00248       	back	(-3.593254e+01 -6.612130e+00 -2.370861e+01)	(2.553796e+01 1.157707e+01 6.816327e+01)
0.00248       	carMirror	(-1.069656e+02 -4.230522e+01 -5.912886e+01)	(4.524493e+01 7.852330e+01 5.180487e+01)
0.00256       	back	(-3.495103e+01 -7.029625e+00 -2.490061e+01)	(2.658214e+01 1.148485e+01 6.744754e+01)
0.00256       	carMirror	(-1.022623e+02 -4.254819e+01 -5.857218e+01)	(4.605891e+01 7.397878e+01 5.182333e+01)
0.00264       	back	(-3.441048e+01 -8.233199e+00 -2.245297e+01)	(2.639357e+01 1.111426e+01 6.523261e+01)
0.00264       	carMirror	(-9.827807e+01 -4.210232e+01 -5.690486e+01)	(4.794075e+01 7.040106e+01 5.140678e+01)
0.00272       	back	(-3.405967e+01 -8.566496e+00 -2.233238e+01)	(2.535924e+01 1.118499e+01 6.423328e+01)
0.00272       	carMirror	(-9.757426e+01 -4.130134e+01 -5.645708e+01)	(4.478271e+01 7.414483e+01 5.205657e+01)
0.0028        	back	(-3.404393e+01 -9.307051e+00 -2.297781e+01)	(2.582579e+01 1.049149e+01 5.971062e+01)
0.0028        	carMirror	(-9.969266e+01 -4.033930e+01 -6.085839e+01)	(3.810200e+01 8.439557e+01 5.074150e+01)
0.00288       	back	(-3.404371e+01 -1.038577e+01 -2.137759e+01)	(2.665434e+01 1.003414e+01 5.705807e+01)
0.00288       	carMirror	(-1.071829e+02 -4.042460e+01 -6.156135e+01)	(4.142650e+01 8.693409e+01 5.107731e+01)
0.00296       	back	(-3.333358e+01 -1.097007e+01 -2.062816e+01)	(2.354876e+01 1.079421e+01 6.075426e+01)
0.00296       	carMirror	(-1.032108e+02 -4.112306e+01 -6.299894e+01)	(4.693925e+01 8.280386e+01 5.064489e+01)
0.00304       	back	(-3.341006e+01 -1.086836e+01 -2.040005e+01)	(2.366324e+01 1.080917e+01 6.133177e+01)
0.00304       	carMirror	(-1.027614e+02 -4.201935e+01 -6.205834e+01)	(4.537874e+01 8.085411e+01 5.367487e+01)
0.00312       	back	(-3.348405e+01 -1.111542e+01 -1.754793e+01)	(2.613965e+01 1.076439e+01 6.094576e+01)
0.00312       	carMirror	(-1.012312e+02 -4.431211e+01 -6.053201e+01)	(4.352061e+01 8.023960e+01 5.940806e+01)
0.0032        	back	(-3.363000e+01 -1.048343e+01 -1.704936e+01)	(2.718822e+01 1.101063e+01 6.223565e+01)
0.0032        	carMirror	(-9.995491e+01 -4.508625e+01 -5.976980e+01)	(4.180886e+01 7.914484e+01 6.236020e+01)
0.00328       	back	(-3.382827e+01 -1.052541e+01 -1.911576e+01)	(2.604113e+01 1.092784e+01 6.232549e+01)
0.00328       	carMirror	(-1.010616e+02 -4.250914e+01 -5.797831e+01)	(4.678690e+01 7.891511e+01 6.531159e+01)
0.00336       	back	(-3.379466e+01 -1.059406e+01 -1.969571e+01)	(2.370060e+01 1.088656e+01 6.173538e+01)
0.00336       	carMirror	(-1.005501e+02 -4.372481e+01 -5.776112e+01)	(4.464337e+01 7.837152e+01 6.421366e+01)
0.00344       	back	(-3.380488e+01 -1.012840e+01 -2.052904e+01)	(2.091573e+01 1.082627e+01 6.152152e+01)
0.00344       	carMirror	(-1.006358e+02 -4.250242e+01 -5.854872e+01)	(2.965514e+01 7.737357e+01 6.192255e+01)
0.00352       	back	(-3.389694e+01 -9.721172e+00 -2.052946e+01)	(1.830654e+01 1.070121e+01 6.110336e+01)
0.00352       	carMirror	(-1.032705e+02 -4.104891e+01 -5.733592e+01)	(2.696272e+01 7.856206e+01 5.861061e+01)
0.0036        	back	(-3.386495e+01 -9.255624e+00 -2.061259e+01)	(1.436931e+01 1.072637e+01 6.089935e+01)
0.0036        	carMirror	(-1.014835e+02 -3.959298e+01 -5.933903e+01)	(3.784832e+01 7.735954e+01 7.510527e+01)
0.00368       	back	(-3.405760e+01 -9.347507e+00 -2.108988e+01)	(1.264777e+01 1.070098e+01 6.095733e+01)
0.00368       	carMirror	(-9.909928e+01 -3.850985e+01 -5.755285e+01)	(4.075875e+01 7.570450e+01 6.586945e+01)
0.00376       	back	(-3.404100e+01 -9.585846e+00 -1.837111e+01)	(1.215677e+01 1.085125e+01 6.205991e+01)
0.00376       	carMirror	(-9.935032e+01 -3.738776e+01 -5.746987e+01)	(4.126600e+01 7.565313e+01 6.488112e+01)
0.00384       	back	(-3.390193e+01 -9.496887e+00 -1.770916e+01)	(1.149054e+01 1.080309e+01 6.191317e+01)
0.00384       	carMirror	(-9.963179e+01 -3.560138e+01 -5.836810e+01)	(3.735607e+01 7.733998e+01 7.132629e+01)
0.00392       	back	(-3.365379e+01 -8.945012e+00 -1.898798e+01)	(1.174623e+01 1.083062e+01 6.167889e+01)
0.00392       	carMirror	(-9.947122e+01 -3.244198e+01 -5.679608e+01)	(3.012623e+01 7.527354e+01 7.259468e+01)
0.004         	back	(-3.363466e+01 -7.833139e+00 -2.086191e+01)	(1.332229e+01 1.055114e+01 6.038365e+01)
0.004         	carMirror	(-9.911207e+01 -3.089851e+01 -5.585528e+01)	(2.338179e+01 7.550567e+01 7.357318e+01)
0.00408       	back	(-3.367378e+01 -7.763326e+00 -2.037818e+01)	(1.517059e+01 1.047343e+01 6.001239e+01)
0.00408       	carMirror	(-1.004181e+02 -2.985890e+01 -5.582431e+01)	(2.326666e+01 7.713685e+01 7.701223e+01)
0.00416       	back	(-3.349271e+01 -8.168900e+00 -2.336151e+01)	(1.560613e+01 1.054339e+01 5.993378e+01)
0.00416       	carMirror	(-9.968148e+01 -2.684664e+01 -5.470501e+01)	(2.444495e+01 7.617790e+01 7.739774e+01)
0.00424       	back	(-3.516467e+01 -7.971076e+00 -2.054237e+01)	(1.548955e+01 1.053079e+01 5.973498e+01)
0.00424       	carMirror	(-9.914535e+01 -2.562232e+01 -5.578999e+01)	(2.928963e+01 7.561137e+01 8.224609e+01)
0.00432       	back	(-3.445938e+01 -7.440199e+00 -2.118978e+01)	(1.567274e+01 1.065473e+01 5.985034e+01)
0.00432       	carMirror	(-9.876264e+01 -2.542224e+01 -5.344879e+01)	(3.700898e+01 7.613307e+01 7.487895e+01)
0.0044        	back	(-3.326917e+01 -6.866229e+00 -1.860611e+01)	(1.602323e+01 1.065168e+01 5.969102e+01)
0.0044        	carMirror	(-9.796420e+01 -2.641400e+01 -5.573749e+01)	(3.107920e+01 7.511101e+01 8.070546e+01)
0.00448       	back	(-3.324196e+01 -6.121394e+00 -2.141056e+01)	(1.630100e+01 1.060817e+01 5.969053e+01)
0.00448       	carMirror	(-9.820644e+01 -2.940891e+01 -5.672321e+01)	(3.270285e+01 7.473539e+01 8.537368e+01)
0.00456       	back	(-3.309987e+01 -5.720843e+00 -2.056277e+01)	(1.628313e+01 1.052673e+01 5.913594e+01)
0.00456       	carMirror	(-9.683071e+01 -2.835822e+01 -5.814982e+01)	(2.758391e+01 7.370787e+01 8.623011e+01)
0.00464       	back	(-3.309698e+01 -5.727324e+00 -2.282061e+01)	(1.618648e+01 1.047166e+01 5.892944e+01)
0.00464       	carMirror	(-9.715820e+01 -2.610947e+01 -5.867548e+01)	(2.818432e+01 7.385142e+01 8.407087e+01)
0.00472       	back	(-3.296800e+01 -7.041496e+00 -2.198709e+01)	(1.651726e+01 1.038266e+01 5.859487e+01)
0.00472       	carMirror	(-9.772394e+01 -2.715749e+01 -5.938047e+01)	(2.993994e+01 7.413677e+01 7.891475e+01)
0.0048        	back	(-3.274563e+01 -8.911569e+00 -2.345839e+01)	(1.634657e+01 1.029291e+01 5.811935e+01)
0.0048        	carMirror	(-9.879600e+01 -2.798303e+01 -5.928768e+01)	(2.976505e+01 7.612951e+01 7.749017e+01)
0.00488       	back	(-3.234965e+01 -8.979613e+00 -2.284480e+01)	(1.594363e+01 1.035679e+01 5.773911e+01)
0.00488       	carMirror	(-9.900041e+01 -3.024202e+01 -5.926359e+01)	(3.463176e+01 7.674895e+01 7.954044e+01)
0.00496       	back	(-3.213487e+01 -9.203732e+00 -2.299368e+01)	(1.599483e+01 1.041952e+01 5.767109e+01)
0.00496       	carMirror	(-9.871229e+01 -3.365974e+01 -5.861728e+01)	(3.132065e+01 7.523699e+01 7.746088e+01)
0.00504       	back	(-3.184914e+01 -9.683319e+00 -2.107140e+01)	(1.605038e+01 1.046591e+01 5.711035e+01)
0.00504       	carMirror	(-9.773800e+01 -3.691033e+01 -5.784368e+01)	(3.543755e+01 7.518174e+01 7.860691e+01)
0.00512       	back	(-3.146515e+01 -1.002273e+01 -2.095190e+01)	(1.613550e+01 1.045909e+01 5.666682e+01)
0.00512       	carMirror	(-9.852480e+01 -3.777687e+01 -5.717527e+01)	(3.857138e+01 7.655023e+01 7.445277e+01)
0.0052        	back	(-3.089107e+01 -9.600341e+00 -2.086611e+01)	(1.621847e+01 1.041351e+01 5.615670e+01)
0.0052        	carMirror	(-9.804458e+01 -3.718890e+01 -5.811670e+01)	(2.731184e+01 7.550168e+01 7.617869e+01)
0.00528       	back	(-3.304546e+01 -8.805462e+00 -2.162893e+01)	(1.613112e+01 9.880668e+00 5.151857e+01)
0.00528       	carMirror	(-9.822336e+01 -3.508791e+01 -5.884918e+01)	(2.755890e+01 7.614112e+01 7.945666e+01)
0.00536       	back	(-3.065612e+01 -7.768691e+00 -2.283458e+01)	(1.606205e+01 9.977056e+00 5.109571e+01)
0.00536       	carMirror	(-9.995191e+01 -3.081160e+01 -5.866368e+01)	(2.541075e+01 7.770820e+01 8.038302e+01)
0.00544       	back	(-3.277878e+01 -7.517119e+00 -2.505537e+01)	(1.693545e+01 9.884973e+00 5.085440e+01)
0.00544       	carMirror	(-1.003951e+02 -2.778197e+01 -5.803254e+01)	(2.911946e+01 7.851758e+01 7.756979e+01)
0.00552       	back	(-3.487271e+01 -7.270001e+00 -2.402130e+01)	(1.643830e+01 1.020636e+01 5.271476e+01)
0.00552       	carMirror	(-9.925836e+01 -2.641450e+01 -5.871992e+01)	(2.903762e+01 7.714912e+01 7.967461e+01)
0.0056        	back	(-3.537611e+01 -6.359142e+00 -2.576244e+01)	(1.667548e+01 9.993082e+00 5.312133e+01)
0.0056        	carMirror	(-9.981406e+01 -2.650050e+01 -5.884263e+01)	(2.459389e+01 7.576139e+01 8.056351e+01)
0.00568       	back	(-3.400683e+01 -6.211442e+00 -2.740440e+01)	(1.667924e+01 1.006869e+01 5.366662e+01)
0.00568       	carMirror	(-9.785677e+01 -2.692685e+01 -5.936083e+01)	(2.858897e+01 7.479897e+01 7.932769e+01)
0.00576       	back	(-3.155124e+01 -6.553852e+00 -2.549682e+01)	(1.668470e+01 1.030124e+01 5.206443e+01)
0.00576       	carMirror	(-9.753957e+01 -2.709337e+01 -5.908265e+01)	(3.141506e+01 7.407444e+01 8.257879e+01)
0.00584       	back	(-3.028499e+01 -7.554175e+00 -2.271109e+01)	(1.636907e+01 1.023201e+01 5.052110e+01)
0.00584       	carMirror	(-9.935413e+01 -2.715339e+01 -5.929765e+01)	(2.826276e+01 7.548472e+01 8.445249e+01)
0.00592       	back	(-3.036987e+01 -7.786502e+00 -2.580890e+01)	(1.617301e+01 1.011687e+01 5.007544e+01)
0.00592       	carMirror	(-9.913434e+01 -2.810804e+01 -6.058788e+01)	(4.571531e+01 7.546010e+01 8.124814e+01)
0.006         	back	(-3.048406e+01 -7.605618e+00 -2.524350e+01)	(1.614501e+01 1.004995e+01 5.074915e+01)
0.006         	carMirror	(-9.794241e+01 -3.023072e+01 -6.032024e+01)	(3.782141e+01 7.513636e+01 8.412407e+01)
0.00608       	back	(-3.103130e+01 -7.739778e+00 -2.472302e+01)	(1.626245e+01 1.068874e+01 5.293490e+01)
0.00608       	carMirror	(-1.007871e+02 -3.284798e+01 -6.073760e+01)	(3.983777e+01 7.789620e+01 8.444082e+01)
0.00616       	back	(-3.162893e+01 -7.781772e+00 -2.517290e+01)	(1.625385e+01 1.040880e+01 5.563289e+01)
0.00616       	carMirror	(-1.000244e+02 -3.523532e+01 -6.090497e+01)	(3.361448e+01 7.702556e+01 8.252159e+01)
0.00624       	back	(-3.193151e+01 -7.820760e+00 -2.490373e+01)	(1.634088e+01 1.066245e+01 5.770503e+01)
0.00624       	carMirror	(-1.018666e+02 -3.610710e+01 -6.084068e+01)	(4.054264e+01 7.803207e+01 8.410117e+01)
0.00632       	back	(-3.201990e+01 -7.761430e+00 -2.428236e+01)	(1.658008e+01 1.064481e+01 5.808117e+01)
0.00632       	carMirror	(-1.017307e+02 -3.607828e+01 -6.119519e+01)	(3.307705e+01 7.833310e+01 8.454501e+01)
0.0064        	back	(-3.183072e+01 -7.092727e+00 -2.618345e+01)	(1.650199e+01 1.069738e+01 5.696465e+01)
0.0064        	carMirror	(-1.006552e+02 -3.540616e+01 -6.039180e+01)	(3.209368e+01 7.693807e+01 8.315807e+01)
0.00648       	back	(-3.130387e+01 -6.926436e+00 -2.966776e+01)	(1.591317e+01 1.059764e+01 5.338289e+01)
0.00648       	carMirror	(-1.003026e+02 -3.328559e+01 -5.990151e+01)	(4.297184e+01 7.814592e+01 8.207114e+01)
0.00656       	back	(-3.110684e+01 -7.350394e+00 -3.121783e+01)	(1.596845e+01 1.033177e+01 5.088952e+01)
0.00656       	carMirror	(-9.938570e+01 -2.957143e+01 -5.992173e+01)	(3.600279e+01 7.575204e+01 7.995428e+01)
0.00664       	back	(-3.101404e+01 -7.641348e+00 -2.911911e+01)	(1.635422e+01 1.046998e+01 5.004322e+01)
0.00664       	carMirror	(-9.865372e+01 -2.798009e+01 -6.020471e+01)	(2.920818e+01 7.562634e+01 8.117804e+01)
0.00672       	back	(-3.086580e+01 -7.409159e+00 -2.563483e+01)	(1.635606e+01 1.030001e+01 5.059315e+01)
0.00672       	carMirror	(-9.737036e+01 -3.077728e+01 -5.933774e+01)	(3.207994e+01 7.343189e+01 7.935112e+01)
0.0068        	back	(-3.110368e+01 -6.832596e+00 -2.721157e+01)	(1.644946e+01 1.033986e+01 5.107289e+01)
0.0068        	carMirror	(-9.684045e+01 -2.991957e+01 -5.944741e+01)	(2.951808e+01 7.368082e+01 7.985912e+01)
0.00688       	back	(-3.119121e+01 -6.428016e+00 -2.897386e+01)	(1.624592e+01 1.024635e+01 5.137016e+01)
0.00688       	carMirror	(-9.622056e+01 -3.116091e+01 -5.906981e+01)	(2.885370e+01 7.246666e+01 7.881374e+01)
0.00696       	back	(-3.137287e+01 -6.635801e+00 -3.102779e+01)	(1.610109e+01 1.024519e+01 5.253325e+01)
0.00696       	carMirror	(-9.592657e+01 -3.153455e+01 -5.868481e+01)	(2.531345e+01 7.198068e+01 7.977355e+01)
0.00704       	back	(-3.176963e+01 -6.049147e+00 -3.270018e+01)	(1.622294e+01 1.082916e+01 5.496551e+01)
0.00704       	carMirror	(-9.735916e+01 -3.026205e+01 -5.807610e+01)	(3.847561e+01 7.270886e+01 6.520513e+01)
0.00712       	back	(-3.283963e+01 -8.370649e+00 -2.800474e+01)	(1.630336e+01 1.009325e+01 5.125712e+01)
0.00712       	carMirror	(-9.760895e+01 -3.019184e+01 -5.794226e+01)	(4.051417e+01 7.325566e+01 6.325746e+01)
0.0072        	back	(-3.238402e+01 -1.126744e+01 -2.365635e+01)	(1.638976e+01 1.065385e+01 5.692651e+01)
0.0072        	carMirror	(-1.011502e+02 -3.088500e+01 -5.673981e+01)	(4.163018e+01 7.624156e+01 6.932896e+01)
0.00728       	back	(-3.244215e+01 -1.221263e+01 -2.344952e+01)	(1.630427e+01 1.091564e+01 5.918805e+01)
0.00728       	carMirror	(-9.640322e+01 -3.586278e+01 -5.683440e+01)	(3.665164e+01 7.187868e+01 6.864035e+01)
0.00736       	back	(-3.269891e+01 -1.243546e+01 -2.642143e+01)	(1.634150e+01 1.082982e+01 5.896853e+01)
0.00736       	carMirror	(-9.664301e+01 -3.847191e+01 -5.641717e+01)	(3.997475e+01 7.277814e+01 6.484152e+01)
0.00744       	back	(-3.300258e+01 -1.079583e+01 -2.794890e+01)	(1.656821e+01 1.070266e+01 5.877907e+01)
0.00744       	carMirror	(-9.790137e+01 -3.990360e+01 -5.559413e+01)	(4.155181e+01 7.281859e+01 6.245551e+01)
0.00752       	back	(-3.295131e+01 -9.211089e+00 -2.467908e+01)	(1.675064e+01 1.083526e+01 5.931808e+01)
0.00752       	carMirror	(-9.732351e+01 -4.176279e+01 -5.658315e+01)	(3.807740e+01 7.349147e+01 7.040780e+01)
0.0076        	back	(-3.312310e+01 -1.170956e+01 -2.412061e+01)	(1.728364e+01 1.094624e+01 5.973897e+01)
0.0076        	carMirror	(-9.639084e+01 -4.132339e+01 -5.564857e+01)	(3.885087e+01 7.283255e+01 6.980913e+01)
0.00768       	back	(-3.320451e+01 -1.322132e+01 -2.786676e+01)	(1.756037e+01 1.084763e+01 5.965029e+01)
0.00768       	carMirror	(-9.581221e+01 -3.918349e+01 -5.500311e+01)	(4.092711e+01 7.234878e+01 5.849252e+01)
0.00776       	back	(-3.330046e+01 -1.212309e+01 -2.882665e+01)	(1.724506e+01 1.087603e+01 5.961687e+01)
0.00776       	carMirror	(-9.755934e+01 -3.400585e+01 -5.648270e+01)	(3.500454e+01 7.350223e+01 7.402287e+01)
0.00784       	back	(-3.340641e+01 -1.104205e+01 -2.442408e+01)	(1.699894e+01 1.095300e+01 5.999108e+01)
0.00784       	carMirror	(-9.504697e+01 -3.821244e+01 -5.570914e+01)	(3.107213e+01 7.121453e+01 7.323864e+01)
0.00792       	back	(-3.364979e+01 -1.267030e+01 -2.597073e+01)	(1.681668e+01 1.088943e+01 5.997676e+01)
0.00792       	carMirror	(-9.562162e+01 -3.755974e+01 -5.562063e+01)	(2.543067e+01 7.216440e+01 7.516175e+01)
0.008         	back	(-3.396371e+01 -1.223343e+01 -2.746868e+01)	(1.710852e+01 1.092553e+01 6.064423e+01)
0.008         	carMirror	(-9.495291e+01 -3.499343e+01 -5.453519e+01)	(2.812895e+01 7.133298e+01 7.273829e+01)
0.00808       	back	(-3.415938e+01 -1.090692e+01 -2.938759e+01)	(1.757678e+01 1.101115e+01 6.141632e+01)
0.00808       	carMirror	(-9.382875e+01 -3.262205e+01 -5.404923e+01)	(2.982922e+01 7.028894e+01 7.279108e+01)
0.00816       	back	(-3.426503e+01 -1.148670e+01 -2.584520e+01)	(1.734527e+01 1.094366e+01 6.138501e+01)
0.00816       	carMirror	(-9.336063e+01 -3.441791e+01 -5.311857e+01)	(3.007077e+01 6.961971e+01 7.190344e+01)
0.00824       	back	(-3.425378e+01 -1.261388e+01 -2.426812e+01)	(1.659123e+01 1.088530e+01 6.123711e+01)
0.00824       	carMirror	(-9.252434e+01 -3.470035e+01 -5.174687e+01)	(2.638362e+01 6.878144e+01 7.043998e+01)
0.00832       	back	(-3.413429e+01 -1.279210e+01 -2.632821e+01)	(1.676427e+01 1.083351e+01 6.102582e+01)
0.00832       	carMirror	(-9.236482e+01 -3.408069e+01 -5.298149e+01)	(2.661310e+01 6.740842e+01 6.678199e+01)
0.0084        	back	(-3.395212e+01 -1.284691e+01 -2.497925e+01)	(1.659749e+01 1.086414e+01 6.086368e+01)
0.0084        	carMirror	(-9.157378e+01 -3.351981e+01 -5.236151e+01)	(2.575694e+01 6.715769e+01 6.775006e+01)
0.00848       	back	(-3.405236e+01 -1.361355e+01 -2.500235e+01)	(1.621824e+01 1.070766e+01 6.057404e+01)
0.00848       	carMirror	(-9.068791e+01 -3.267837e+01 -5.030823e+01)	(3.041671e+01 6.606779e+01 6.912981e+01)
0.00856       	back	(-3.412562e+01 -1.262485e+01 -2.650790e+01)	(1.629738e+01 1.075322e+01 6.083398e+01)
0.00856       	carMirror	(-9.059592e+01 -3.119976e+01 -4.985483e+01)	(3.073558e+01 6.600465e+01 7.091961e+01)
0.00864       	back	(-3.407056e+01 -1.083508e+01 -2.695398e+01)	(1.644973e+01 1.080468e+01 6.100356e+01)
0.00864       	carMirror	(-9.059478e+01 -3.217871e+01 -4.955072e+01)	(1.884366e+01 6.635525e+01 5.265387e+01)
0.00872       	back	(-3.400907e+01 -8.286211e+00 -2.515979e+01)	(1.642723e+01 1.076880e+01 6.091708e+01)
0.00872       	carMirror	(-9.039835e+01 -4.017510e+01 -4.936596e+01)	(2.072741e+01 6.491178e+01 5.210834e+01)
0.0088        	back	(-3.386072e+01 -8.612448e+00 -2.291608e+01)	(1.611835e+01 1.074212e+01 6.047902e+01)
0.0088        	carMirror	(-9.040813e+01 -4.459557e+01 -4.920486e+01)	(2.311700e+01 6.290421e+01 5.189711e+01)
0.00888       	back	(-3.371752e+01 -8.733597e+00 -2.524317e+01)	(1.586944e+01 1.063653e+01 6.008831e+01)
0.00888       	carMirror	(-9.016908e+01 -4.433042e+01 -4.891307e+01)	(1.886276e+01 6.199370e+01 5.166174e+01)
0.00896       	back	(-3.339846e+01 -8.139794e+00 -2.432094e+01)	(1.689918e+01 1.060531e+01 5.980270e+01)
0.00896       	carMirror	(-8.994751e+01 -4.370758e+01 -4.883554e+01)	(3.310943e+01 6.189389e+01 5.199663e+01)
0.00904       	back	(-3.305639e+01 -8.539694e+00 -2.294192e+01)	(1.664845e+01 1.076189e+01 5.885436e+01)
0.00904       	carMirror	(-8.977795e+01 -4.107786e+01 -5.055165e+01)	(3.253014e+01 5.975773e+01 5.251644e+01)
0.00912       	back	(-3.268741e+01 -8.534337e+00 -2.378338e+01)	(1.593110e+01 1.091794e+01 5.828865e+01)
0.00912       	carMirror	(-8.962752e+01 -3.737022e+01 -4.871943e+01)	(3.181125e+01 5.947943e+01 5.213911e+01)
0.0092        	back	(-3.247951e+01 -8.659691e+00 -2.490732e+01)	(1.620010e+01 1.055566e+01 5.637472e+01)
0.0092        	carMirror	(-8.922932e+01 -3.231305e+01 -4.842724e+01)	(3.233752e+01 5.936601e+01 5.198317e+01)
0.00928       	back	(-3.315712e+01 -9.164295e+00 -2.369985e+01)	(1.630747e+01 1.074064e+01 5.693665e+01)
0.00928       	carMirror	(-8.925863e+01 -3.178140e+01 -4.607829e+01)	(2.711245e+01 5.731533e+01 5.234677e+01)
0.00936       	back	(-3.259770e+01 -8.355130e+00 -2.331117e+01)	(1.593070e+01 1.073604e+01 5.723925e+01)
0.00936       	carMirror	(-8.939226e+01 -3.703694e+01 -4.607944e+01)	(2.797976e+01 5.628286e+01 5.190894e+01)
0.00944       	back	(-3.276857e+01 -6.744824e+00 -2.641560e+01)	(1.569889e+01 1.070813e+01 5.798509e+01)
0.00944       	carMirror	(-8.988198e+01 -3.536430e+01 -4.618401e+01)	(2.643878e+01 5.677335e+01 5.244489e+01)
0.00952       	back	(-3.292530e+01 -7.586834e+00 -2.563579e+01)	(1.622209e+01 1.066434e+01 5.872210e+01)
0.00952       	carMirror	(-9.043265e+01 -3.536830e+01 -4.703234e+01)	(2.864567e+01 5.705200e+01 5.156914e+01)
0.0096        	back	(-3.319736e+01 -8.084665e+00 -2.530398e+01)	(1.647713e+01 1.064293e+01 5.922878e+01)
0.0096        	carMirror	(-9.067660e+01 -3.519724e+01 -5.178876e+01)	(3.366892e+01 5.803349e+01 5.211465e+01)
0.00968       	back	(-3.335432e+01 -1.009365e+01 -2.554148e+01)	(1.611574e+01 1.064404e+01 5.951814e+01)
0.00968       	carMirror	(-9.059289e+01 -3.534619e+01 -5.192472e+01)	(2.988578e+01 5.770379e+01 5.259981e+01)
0.00976       	back	(-3.346936e+01 -1.165667e+01 -2.637562e+01)	(1.628489e+01 1.065832e+01 5.934671e+01)
0.00976       	carMirror	(-9.063985e+01 -3.483885e+01 -5.204221e+01)	(2.701107e+01 5.790728e+01 5.277928e+01)
0.00984       	back	(-3.361260e+01 -1.099026e+01 -2.606586e+01)	(1.648036e+01 1.076967e+01 5.994540e+01)
0.00984       	carMirror	(-9.029791e+01 -3.777103e+01 -5.102270e+01)	(2.650179e+01 5.843762e+01 5.195864e+01)
0.00992       	back	(-3.354601e+01 -9.498624e+00 -2.480338e+01)	(1.647177e+01 1.079818e+01 6.005955e+01)
0.00992       	carMirror	(-9.019004e+01 -4.284822e+01 -5.050282e+01)	(2.678264e+01 5.810396e+01 5.260768e+01)
0.01          	back	(-3.365678e+01 -8.475562e+00 -2.384223e+01)	(1.608595e+01 1.075041e+01 5.965027e+01)
0.01          	carMirror	(-8.994528e+01 -4.708755e+01 -4.980374e+01)	(2.723449e+01 5.683347e+01 5.252640e+01)
