# y+ ()       
# Time        	patch         	min           	max           	average       
8e-05         	back	2.848769e+00	8.477994e+01	2.398762e+01
8e-05         	carMirror	1.210064e-01	9.650405e+01	6.168052e+00
0.00016       	back	2.241205e+00	1.089819e+02	2.580769e+01
0.00016       	carMirror	1.517843e-01	1.337725e+02	9.527944e+00
0.00024       	back	4.034189e+00	1.176507e+02	2.767246e+01
0.00024       	carMirror	7.930699e-02	1.454122e+02	1.250560e+01
0.00032       	back	2.301754e+00	1.412333e+02	2.950839e+01
0.00032       	carMirror	4.684262e-02	1.537260e+02	1.499937e+01
0.0004        	back	3.862598e+00	1.838342e+02	3.156024e+01
0.0004        	carMirror	1.075065e-01	1.736771e+02	1.684480e+01
0.00048       	back	3.907061e+00	2.246629e+02	3.385328e+01
0.00048       	carMirror	9.604160e-02	2.038384e+02	1.860303e+01
0.00056       	back	1.311976e+00	2.872760e+02	3.617211e+01
0.00056       	carMirror	5.152515e-02	2.104530e+02	2.004816e+01
0.00064       	back	4.084075e+00	2.841372e+02	3.834039e+01
0.00064       	carMirror	1.053803e-01	2.077032e+02	2.165022e+01
0.00072       	back	1.907828e+00	2.670667e+02	4.113549e+01
0.00072       	carMirror	9.612998e-02	2.014258e+02	2.292879e+01
0.0008        	back	4.196035e+00	2.831642e+02	4.445592e+01
0.0008        	carMirror	2.873056e-02	2.008887e+02	2.383049e+01
0.00088       	back	4.219807e+00	3.050586e+02	4.513716e+01
0.00088       	carMirror	3.785849e-02	2.040674e+02	2.392537e+01
0.00096       	back	4.214725e+00	4.014805e+02	4.586341e+01
0.00096       	carMirror	2.037537e-02	2.011432e+02	2.364675e+01
0.00104       	back	4.542020e+00	4.553727e+02	4.649073e+01
0.00104       	carMirror	2.352577e-02	1.982563e+02	2.333205e+01
0.00112       	back	3.234355e+00	4.694269e+02	4.716130e+01
0.00112       	carMirror	4.408477e-02	1.967378e+02	2.319165e+01
0.0012        	back	3.433148e+00	4.794596e+02	4.840076e+01
0.0012        	carMirror	6.037377e-02	2.000002e+02	2.336152e+01
0.00128       	back	3.673624e+00	4.898691e+02	4.995819e+01
0.00128       	carMirror	5.525570e-02	2.085380e+02	2.354862e+01
0.00136       	back	4.559463e+00	4.946402e+02	5.121121e+01
0.00136       	carMirror	8.872698e-02	2.207690e+02	2.356435e+01
0.00144       	back	2.954842e+00	4.983255e+02	5.197952e+01
0.00144       	carMirror	6.504196e-02	2.221306e+02	2.336201e+01
0.00152       	back	3.601574e+00	5.102877e+02	5.285773e+01
0.00152       	carMirror	3.452738e-02	2.223369e+02	2.315479e+01
0.0016        	back	2.952999e+00	5.127775e+02	5.378864e+01
0.0016        	carMirror	3.472428e-02	2.214357e+02	2.310462e+01
0.00168       	back	3.112965e+00	5.141822e+02	5.489466e+01
0.00168       	carMirror	3.197165e-02	2.122627e+02	2.325335e+01
0.00176       	back	1.522938e+00	5.210923e+02	5.629102e+01
0.00176       	carMirror	2.024221e-02	2.035039e+02	2.351982e+01
0.00184       	back	1.839114e+00	5.368220e+02	5.771099e+01
0.00184       	carMirror	1.615358e-02	2.055514e+02	2.376910e+01
0.00192       	back	2.272734e+00	5.517069e+02	5.903402e+01
0.00192       	carMirror	1.348292e-02	2.106893e+02	2.400283e+01
0.002         	back	2.409601e+00	5.608220e+02	6.029151e+01
0.002         	carMirror	4.074821e-02	2.147649e+02	2.422400e+01
0.00208       	back	2.783024e+00	5.675024e+02	6.156421e+01
0.00208       	carMirror	4.503445e-02	2.293173e+02	2.444541e+01
0.00216       	back	2.326922e+00	5.771784e+02	6.282665e+01
0.00216       	carMirror	4.867039e-02	2.416856e+02	2.468735e+01
0.00224       	back	2.524015e+00	5.859177e+02	6.415430e+01
0.00224       	carMirror	4.030020e-02	2.547396e+02	2.494784e+01
0.00232       	back	2.932483e+00	5.917868e+02	6.555811e+01
0.00232       	carMirror	3.239990e-02	2.639679e+02	2.519423e+01
0.0024        	back	3.681742e+00	6.063204e+02	6.703064e+01
0.0024        	carMirror	3.777039e-02	2.673309e+02	2.537927e+01
0.00248       	back	4.602170e+00	6.213825e+02	6.851057e+01
0.00248       	carMirror	3.108746e-02	2.605900e+02	2.549109e+01
0.00256       	back	5.083395e+00	6.329869e+02	6.996861e+01
0.00256       	carMirror	3.519369e-02	2.556662e+02	2.557271e+01
0.00264       	back	5.231898e+00	6.409278e+02	7.146875e+01
0.00264       	carMirror	3.605338e-02	2.536936e+02	2.565679e+01
0.00272       	back	3.489246e+00	6.444543e+02	7.309697e+01
0.00272       	carMirror	1.987277e-02	2.471963e+02	2.575715e+01
0.0028        	back	3.248028e+00	6.424074e+02	7.489326e+01
0.0028        	carMirror	4.085295e-02	2.354587e+02	2.585053e+01
0.00288       	back	4.715935e+00	6.371405e+02	7.685571e+01
0.00288       	carMirror	4.416745e-02	2.431409e+02	2.591695e+01
0.00296       	back	1.979274e+00	6.315229e+02	7.900613e+01
0.00296       	carMirror	5.089012e-02	2.535949e+02	2.593919e+01
0.00304       	back	3.209256e+00	6.265232e+02	8.135082e+01
0.00304       	carMirror	4.839901e-02	2.634096e+02	2.595613e+01
0.00312       	back	4.305715e+00	6.194472e+02	8.379205e+01
0.00312       	carMirror	4.631051e-02	2.607249e+02	2.599035e+01
0.0032        	back	3.572232e+00	6.482789e+02	8.630877e+01
0.0032        	carMirror	5.016367e-02	2.495543e+02	2.605420e+01
0.00328       	back	2.617323e+00	6.686948e+02	8.890446e+01
0.00328       	carMirror	4.053381e-02	2.503392e+02	2.612229e+01
0.00336       	back	2.256589e+00	6.706507e+02	9.149655e+01
0.00336       	carMirror	3.947684e-02	2.387866e+02	2.617208e+01
0.00344       	back	3.073633e+00	6.560040e+02	9.401581e+01
0.00344       	carMirror	3.940125e-02	2.091703e+02	2.619946e+01
0.00352       	back	1.967888e+00	6.345143e+02	9.644867e+01
0.00352       	carMirror	5.076689e-02	2.093518e+02	2.621561e+01
0.0036        	back	3.134220e+00	6.247491e+02	9.877246e+01
0.0036        	carMirror	6.090837e-02	2.047927e+02	2.622359e+01
0.00368       	back	4.354608e+00	6.541537e+02	1.009896e+02
0.00368       	carMirror	4.640779e-02	2.105496e+02	2.624543e+01
0.00376       	back	3.515193e+00	6.820388e+02	1.032210e+02
0.00376       	carMirror	3.556437e-02	2.075058e+02	2.628890e+01
0.00384       	back	2.671254e+00	7.048244e+02	1.054701e+02
0.00384       	carMirror	2.480175e-02	2.051471e+02	2.634307e+01
0.00392       	back	2.220574e+00	7.219284e+02	1.077207e+02
0.00392       	carMirror	1.082607e-02	2.077286e+02	2.638733e+01
0.004         	back	1.988374e+00	7.478625e+02	1.099948e+02
0.004         	carMirror	1.074975e-02	2.099220e+02	2.642238e+01
0.00408       	back	1.801620e+00	7.691328e+02	1.122630e+02
0.00408       	carMirror	1.093879e-02	2.186332e+02	2.644213e+01
0.00416       	back	1.690674e+00	7.814386e+02	1.144913e+02
0.00416       	carMirror	1.303852e-02	2.116321e+02	2.646188e+01
0.00424       	back	1.953061e+00	8.007805e+02	1.166561e+02
0.00424       	carMirror	1.177057e-02	2.113221e+02	2.648412e+01
0.00432       	back	2.429476e+00	8.157940e+02	1.187149e+02
0.00432       	carMirror	1.708713e-02	2.217698e+02	2.651169e+01
0.0044        	back	2.400390e+00	8.241728e+02	1.206643e+02
0.0044        	carMirror	2.343845e-02	2.352429e+02	2.652562e+01
0.00448       	back	3.072934e+00	8.364384e+02	1.225157e+02
0.00448       	carMirror	3.050587e-02	2.447984e+02	2.651344e+01
0.00456       	back	2.439369e+00	8.509201e+02	1.242272e+02
0.00456       	carMirror	3.938218e-02	2.495581e+02	2.650472e+01
0.00464       	back	3.568222e+00	8.727397e+02	1.258578e+02
0.00464       	carMirror	4.843671e-02	2.271328e+02	2.650288e+01
0.00472       	back	3.843332e+00	8.993231e+02	1.275043e+02
0.00472       	carMirror	5.645175e-02	2.236803e+02	2.651207e+01
0.0048        	back	3.706750e+00	9.252946e+02	1.291610e+02
0.0048        	carMirror	3.659026e-02	2.079242e+02	2.652229e+01
0.00488       	back	3.035713e+00	9.391236e+02	1.307946e+02
0.00488       	carMirror	5.740096e-02	2.126230e+02	2.654340e+01
0.00496       	back	2.370834e+00	9.614878e+02	1.323634e+02
0.00496       	carMirror	6.013325e-02	2.082885e+02	2.657621e+01
0.00504       	back	2.597211e+00	9.907407e+02	1.338263e+02
0.00504       	carMirror	5.630045e-02	2.150153e+02	2.660883e+01
0.00512       	back	2.532552e+00	1.020773e+03	1.351886e+02
0.00512       	carMirror	5.706222e-02	2.210289e+02	2.665701e+01
0.0052        	back	2.187394e+00	1.032083e+03	1.365221e+02
0.0052        	carMirror	5.638914e-02	2.212104e+02	2.671360e+01
0.00528       	back	2.215451e+00	1.066223e+03	1.378688e+02
0.00528       	carMirror	5.308776e-02	2.121744e+02	2.676276e+01
0.00536       	back	2.735180e+00	1.067426e+03	1.392439e+02
0.00536       	carMirror	5.162523e-02	2.087123e+02	2.680534e+01
0.00544       	back	2.882264e+00	1.070774e+03	1.406559e+02
0.00544       	carMirror	5.460732e-02	2.089189e+02	2.685123e+01
0.00552       	back	2.829233e+00	1.099145e+03	1.420275e+02
0.00552       	carMirror	5.761331e-02	2.086861e+02	2.689848e+01
0.0056        	back	2.851877e+00	1.165630e+03	1.433952e+02
0.0056        	carMirror	6.388294e-02	2.229865e+02	2.696053e+01
0.00568       	back	3.089306e+00	1.226954e+03	1.448796e+02
0.00568       	carMirror	7.234254e-02	2.287812e+02	2.703433e+01
0.00576       	back	3.575224e+00	1.274417e+03	1.464212e+02
0.00576       	carMirror	8.304006e-02	2.394010e+02	2.712599e+01
0.00584       	back	4.169386e+00	1.326338e+03	1.479358e+02
0.00584       	carMirror	8.943784e-02	2.447025e+02	2.720991e+01
0.00592       	back	4.158718e+00	1.389680e+03	1.492895e+02
0.00592       	carMirror	9.093027e-02	2.497444e+02	2.729978e+01
0.006         	back	4.982166e+00	1.441703e+03	1.503154e+02
0.006         	carMirror	9.734987e-02	2.400078e+02	2.741651e+01
0.00608       	back	4.993369e+00	1.477803e+03	1.509503e+02
0.00608       	carMirror	1.023680e-01	2.085786e+02	2.755287e+01
0.00616       	back	5.732753e+00	1.492678e+03	1.511590e+02
0.00616       	carMirror	1.049783e-01	2.094296e+02	2.770322e+01
0.00624       	back	5.716754e+00	1.483583e+03	1.509543e+02
0.00624       	carMirror	1.236891e-01	2.148132e+02	2.785927e+01
0.00632       	back	5.289440e+00	1.458117e+03	1.504217e+02
0.00632       	carMirror	1.449422e-01	2.326019e+02	2.798413e+01
0.0064        	back	4.295189e+00	1.416291e+03	1.496290e+02
0.0064        	carMirror	1.503681e-01	2.441853e+02	2.810054e+01
0.00648       	back	3.702338e+00	1.429208e+03	1.486334e+02
0.00648       	carMirror	1.555688e-01	2.590852e+02	2.820028e+01
0.00656       	back	3.143550e+00	1.500744e+03	1.475362e+02
0.00656       	carMirror	1.620241e-01	2.611004e+02	2.826468e+01
0.00664       	back	3.143997e+00	1.558642e+03	1.465407e+02
0.00664       	carMirror	1.648727e-01	2.388305e+02	2.827091e+01
0.00672       	back	4.002079e+00	1.602274e+03	1.456773e+02
0.00672       	carMirror	1.712814e-01	2.399897e+02	2.823652e+01
0.0068        	back	4.842173e+00	1.638957e+03	1.448448e+02
0.0068        	carMirror	1.790938e-01	2.272512e+02	2.817583e+01
0.00688       	back	3.011749e+00	1.696329e+03	1.439818e+02
0.00688       	carMirror	1.826744e-01	2.317655e+02	2.810486e+01
0.00696       	back	5.547932e+00	1.820314e+03	1.430786e+02
0.00696       	carMirror	1.832047e-01	2.519024e+02	2.804673e+01
0.00704       	back	5.256699e+00	1.973301e+03	1.420674e+02
0.00704       	carMirror	1.713656e-01	2.745691e+02	2.800999e+01
0.00712       	back	4.258366e+00	2.031179e+03	1.409494e+02
0.00712       	carMirror	1.603806e-01	2.529439e+02	2.799685e+01
0.0072        	back	4.058929e+00	2.081326e+03	1.398539e+02
0.0072        	carMirror	1.498349e-01	2.252800e+02	2.800671e+01
0.00728       	back	4.851809e+00	2.061429e+03	1.388948e+02
0.00728       	carMirror	1.426633e-01	2.226733e+02	2.802345e+01
0.00736       	back	5.420035e+00	2.045934e+03	1.380219e+02
0.00736       	carMirror	1.439203e-01	2.199434e+02	2.805344e+01
0.00744       	back	4.585980e+00	2.070910e+03	1.371355e+02
0.00744       	carMirror	1.570915e-01	2.260679e+02	2.808789e+01
0.00752       	back	4.146564e+00	2.128510e+03	1.362591e+02
0.00752       	carMirror	1.356023e-01	2.367672e+02	2.810516e+01
0.0076        	back	4.136314e+00	2.446873e+03	1.354097e+02
0.0076        	carMirror	1.012178e-01	2.140941e+02	2.812588e+01
0.00768       	back	4.051522e+00	2.722923e+03	1.346062e+02
0.00768       	carMirror	7.918150e-02	2.071935e+02	2.816114e+01
0.00776       	back	3.941556e+00	2.964778e+03	1.338585e+02
0.00776       	carMirror	7.334882e-02	2.069511e+02	2.821726e+01
0.00784       	back	3.996221e+00	3.159283e+03	1.332590e+02
0.00784       	carMirror	7.002849e-02	2.074206e+02	2.828478e+01
0.00792       	back	2.135012e+00	3.288600e+03	1.328538e+02
0.00792       	carMirror	7.599389e-02	2.079291e+02	2.836177e+01
0.008         	back	4.592532e+00	3.343412e+03	1.326952e+02
0.008         	carMirror	7.045158e-02	2.079400e+02	2.845126e+01
0.00808       	back	5.038097e+00	3.350558e+03	1.327534e+02
0.00808       	carMirror	6.004288e-02	2.084958e+02	2.854424e+01
0.00816       	back	5.155804e+00	3.315165e+03	1.329550e+02
0.00816       	carMirror	5.259051e-02	2.200742e+02	2.862584e+01
0.00824       	back	4.770352e+00	3.244482e+03	1.332622e+02
0.00824       	carMirror	4.779015e-02	2.316306e+02	2.869858e+01
0.00832       	back	4.145811e+00	3.150098e+03	1.337295e+02
0.00832       	carMirror	4.481311e-02	2.429512e+02	2.875603e+01
0.0084        	back	3.537830e+00	3.042710e+03	1.342864e+02
0.0084        	carMirror	4.452665e-02	2.507170e+02	2.879798e+01
0.00848       	back	3.906441e+00	2.931579e+03	1.348493e+02
0.00848       	carMirror	4.426753e-02	2.396851e+02	2.883088e+01
0.00856       	back	3.442616e+00	2.823313e+03	1.353210e+02
0.00856       	carMirror	4.760671e-02	2.247850e+02	2.884862e+01
0.00864       	back	2.821023e+00	2.716705e+03	1.357002e+02
0.00864       	carMirror	5.483847e-02	2.072272e+02	2.884800e+01
0.00872       	back	2.375925e+00	2.605570e+03	1.359906e+02
0.00872       	carMirror	6.660356e-02	2.069901e+02	2.884555e+01
0.0088        	back	2.325622e+00	2.488403e+03	1.362407e+02
0.0088        	carMirror	7.711089e-02	2.065910e+02	2.884036e+01
0.00888       	back	2.460318e+00	2.368750e+03	1.364706e+02
0.00888       	carMirror	8.861843e-02	2.062890e+02	2.882021e+01
0.00896       	back	2.797680e+00	2.249245e+03	1.366541e+02
0.00896       	carMirror	1.073598e-01	2.196799e+02	2.878306e+01
0.00904       	back	2.946978e+00	2.131584e+03	1.368838e+02
0.00904       	carMirror	1.267002e-01	2.343381e+02	2.871626e+01
0.00912       	back	3.112983e+00	2.015306e+03	1.371602e+02
0.00912       	carMirror	9.789971e-02	2.339893e+02	2.864059e+01
0.0092        	back	3.396636e+00	1.901699e+03	1.373319e+02
0.0092        	carMirror	7.099839e-02	2.268112e+02	2.854427e+01
0.00928       	back	3.007993e+00	1.814464e+03	1.373321e+02
0.00928       	carMirror	4.987499e-02	2.187430e+02	2.843879e+01
0.00936       	back	2.720155e+00	1.870482e+03	1.371613e+02
0.00936       	carMirror	4.013624e-02	2.062783e+02	2.836288e+01
0.00944       	back	2.679345e+00	1.911601e+03	1.367971e+02
0.00944       	carMirror	4.707432e-02	2.138631e+02	2.831913e+01
0.00952       	back	2.705593e+00	1.939510e+03	1.363734e+02
0.00952       	carMirror	5.453610e-02	2.240253e+02	2.831510e+01
0.0096        	back	2.761799e+00	1.961727e+03	1.359762e+02
0.0096        	carMirror	5.598732e-02	2.377474e+02	2.834243e+01
0.00968       	back	2.805682e+00	2.000696e+03	1.356193e+02
0.00968       	carMirror	5.063761e-02	2.573693e+02	2.839776e+01
0.00976       	back	2.845824e+00	2.028320e+03	1.353087e+02
0.00976       	carMirror	4.423791e-02	2.507631e+02	2.846260e+01
0.00984       	back	2.857568e+00	2.040177e+03	1.352720e+02
0.00984       	carMirror	4.355760e-02	2.231546e+02	2.853057e+01
0.00992       	back	2.934506e+00	2.033051e+03	1.356615e+02
0.00992       	carMirror	4.520686e-02	2.083671e+02	2.861651e+01
0.01          	back	3.156365e+00	2.013696e+03	1.363038e+02
0.01          	carMirror	4.408459e-02	2.069590e+02	2.871063e+01
